ITEM: TIMESTEP
5
ITEM: NUMBER OF ATOMS
24192
ITEM: BOX BOUNDS pp pp pp
0.0000000000000000e+00 1.6800000000000000e+02
0.0000000000000000e+00 4.8000000000000000e+01
0.0000000000000000e+00 4.8000000000000000e+01
ITEM: ATOMS id type xu yu zu 
1 1 1.50464 0.868784 -0.000174008 
3 2 -0.000144951 0.000189478 0.000908893 
2 2 1.50482 2.60628 -0.000320958 
4 2 3.00925 -0.00012087 -0.00110996 
5 1 5.50485 0.86881 0.00017875 
7 2 4.00041 -0.000394029 -0.00085453 
6 2 5.50433 2.60631 0.000265943 
11 2 8.00011 1.5442e-05 -0.000893799 
8 2 7.00981 0.000514258 0.00112484 
9 1 9.50481 0.868763 -5.43409e-05 
15 2 11.9999 -0.000125441 -0.000271531 
10 2 9.50482 2.60626 0.000206868 
12 2 11.0095 1.12519e-05 0.000523908 
13 1 13.5046 0.868698 0.000108837 
14 2 13.5045 2.6062 0.000588622 
16 2 15.0093 2.17547e-05 9.42104e-06 
17 1 17.505 0.868735 -5.8051e-05 
19 2 16.0002 0.000130475 0.000138181 
18 2 17.5051 2.60623 2.11746e-05 
23 2 20.0001 -0.000434309 -0.000641929 
20 2 19.0096 -0.000161423 -0.000333509 
21 1 21.5046 0.868752 7.77522e-05 
27 2 24.0001 0.000201033 1.08748e-05 
22 2 21.5041 2.60625 0.00099369 
24 2 23.0095 0.000438489 -0.000118505 
25 1 25.5047 0.869023 -2.31148e-05 
26 2 25.5046 2.60652 0.000183171 
28 2 27.0095 0.000345713 -0.00026339 
29 1 29.5047 0.868719 9.03202e-05 
31 2 27.9999 0.000101961 0.000428517 
30 2 29.5048 2.60622 0.0004289 
33 1 33.5046 0.868716 -7.40679e-05 
35 2 31.9997 0.0003225 0.0001107 
34 2 33.505 2.60622 0.000272205 
32 2 31.0093 -0.000162991 -0.000586456 
169 1 1.50491 4.86856 0.000327167 
171 2 -9.80326e-05 4.00033 -0.000113695 
172 2 3.0093 3.99928 0.000517825 
173 1 5.50446 4.86878 -6.66693e-05 
175 2 3.99934 4.00076 -0.000554521 
179 2 8.00007 4.00016 0.000107359 
176 2 7.00874 3.9993 0.000719268 
177 1 9.50491 4.86869 -8.7513e-06 
183 2 12.0002 3.99965 5.61898e-05 
180 2 11.0095 3.99971 -0.000858529 
181 1 13.5048 4.86869 0.000167797 
184 2 15.0096 4.00023 2.64294e-05 
185 1 17.5045 4.86884 -1.05279e-05 
187 2 15.9996 4.00045 0.000435457 
191 2 19.9998 4.00004 -0.00042502 
188 2 19.009 3.99974 0.000389093 
189 1 21.5046 4.86868 -8.1059e-05 
195 2 23.9997 4.00029 -0.000114586 
192 2 23.0092 3.99981 -0.000531743 
193 1 25.5046 4.86872 -0.000175462 
196 2 27.0091 3.99965 -0.000642268 
197 1 29.5048 4.86884 -0.000146632 
199 2 28 4.0003 0.000342862 
201 1 33.5046 4.86872 -7.93443e-05 
203 2 32 3.9998 -0.000302893 
200 2 31.0094 3.99989 -0.000816972 
337 1 1.5047 8.86879 6.79198e-05 
339 2 -0.000129843 8.00026 3.77814e-05 
170 2 1.50552 6.60606 0.000577369 
340 2 3.00927 7.99982 0.000491405 
341 1 5.50473 8.86883 -0.00024248 
343 2 3.99994 8.00024 -0.00135427 
174 2 5.50531 6.60628 -0.000364755 
347 2 8.00043 7.99912 0.000175816 
344 2 7.00934 7.99993 0.00135463 
345 1 9.50466 8.86868 4.59851e-05 
351 2 12.0001 8.00022 0.000553577 
178 2 9.50517 6.60619 0.000724916 
348 2 11.0098 8.00074 0.000180854 
349 1 13.5048 8.86897 -5.35781e-05 
182 2 13.5044 6.60619 0.000420773 
352 2 15.0095 8.00022 0.000618811 
353 1 17.5045 8.86865 -5.74552e-06 
355 2 15.9995 8.00039 -0.000122685 
186 2 17.505 6.60634 -0.000856133 
359 2 19.9996 8.00027 -0.000493013 
356 2 19.0089 7.9994 -0.000581783 
357 1 21.5045 8.8687 -3.7688e-05 
363 2 24 8.00024 0.000148727 
190 2 21.5047 6.60618 0.000713586 
360 2 23.009 7.99962 0.000409472 
361 1 25.5048 8.86878 0.000198359 
194 2 25.5049 6.60622 0.000230469 
364 2 27.0094 7.99982 0.000735237 
365 1 29.5045 8.86884 -1.37363e-05 
367 2 28.0001 7.99967 -0.000531384 
198 2 29.5051 6.60634 3.42143e-05 
369 1 33.5044 8.86885 0.00027475 
371 2 31.9998 7.99997 7.97771e-05 
202 2 33.5044 6.60622 -0.000176976 
368 2 31.0095 8.00051 0.000704455 
338 2 1.50495 10.6063 -0.000325427 
342 2 5.50491 10.6063 -0.000727807 
346 2 9.50372 10.6062 -0.000218715 
350 2 13.5048 10.6065 -0.00133312 
354 2 17.5051 10.6061 0.000687232 
358 2 21.5049 10.6062 -2.95229e-05 
362 2 25.505 10.6063 -0.000288887 
366 2 29.5041 10.6063 -0.000214281 
370 2 33.5042 10.6063 0.000662032 
505 1 1.50464 12.8689 -7.08101e-05 
507 2 8.50347e-05 11.9999 -0.000763177 
506 2 1.50435 14.6064 0.000684629 
508 2 3.00948 12.0004 -0.000133883 
509 1 5.5049 12.8686 6.97426e-05 
511 2 3.99994 12.0003 0.000664376 
510 2 5.50541 14.6061 -0.000265442 
515 2 8.00028 11.9999 0.000512557 
512 2 7.00934 11.9994 -0.000189706 
513 1 9.50488 12.8688 3.20777e-05 
519 2 12.0001 12 -0.000158988 
514 2 9.50469 14.6063 2.77176e-05 
516 2 11.0097 12.0002 -0.000444041 
517 1 13.5047 12.8689 -0.000194598 
518 2 13.5045 14.6064 0.00056557 
520 2 15.0095 12.0003 -0.000990375 
521 1 17.5047 12.8689 -3.61674e-05 
523 2 16.0002 11.9999 -5.77365e-05 
522 2 17.5045 14.6064 0.000898705 
527 2 20.0005 11.9995 -0.000390837 
524 2 19.0096 12.0003 -0.000949471 
525 1 21.5049 12.8687 -0.000170612 
531 2 23.9998 12 0.000445996 
526 2 21.5044 14.6062 -0.0011472 
528 2 23.0099 12.0004 0.0010262 
529 1 25.5045 12.8687 0.000244405 
530 2 25.5045 14.6062 0.000327871 
532 2 27.0092 12 -4.06521e-05 
533 1 29.5045 12.8686 -2.874e-05 
535 2 28 11.9995 0.00016583 
534 2 29.5042 14.6061 -0.000246509 
537 1 33.5049 12.8689 -2.08892e-05 
539 2 32.0002 12.0001 -0.000769661 
538 2 33.505 14.6064 0.000650372 
536 2 31.0094 12.0001 -5.5409e-06 
673 1 1.50465 16.8689 -0.000215312 
675 2 -0.000207974 16.0004 0.000974523 
676 2 3.00919 15.9998 -0.000924491 
677 1 5.50467 16.8689 0.000115733 
679 2 3.99998 16.0001 -0.000226882 
683 2 7.99988 16.0003 -0.000805932 
680 2 7.00938 16.0001 -8.98152e-05 
681 1 9.50473 16.8688 -8.8912e-05 
687 2 12.0002 16 0.000599509 
684 2 11.0093 15.9998 0.000788999 
685 1 13.5049 16.8688 -0.000107493 
688 2 15.0096 16.0001 -0.00102337 
689 1 17.5047 16.8688 -7.76287e-05 
691 2 16 16.0001 9.82443e-05 
695 2 20 15.9999 -0.000628172 
692 2 19.0094 16 -0.000423819 
693 1 21.5046 16.8689 -3.71379e-05 
699 2 23.9998 16.0002 -0.000256058 
696 2 23.0094 16.0004 0.000500511 
697 1 25.5047 16.8686 0.000117929 
700 2 27.0092 15.9994 0.000564815 
701 1 29.5048 16.8687 2.52347e-06 
703 2 28.0001 15.9999 -0.000595005 
705 1 33.5045 16.8691 -0.000101206 
707 2 32.0003 15.9995 -0.000670915 
704 2 31.0095 16 0.000263353 
841 1 1.50459 20.8689 -2.7622e-05 
843 2 -0.000117837 20.0002 0.0001155 
674 2 1.50496 18.6064 -0.000695967 
844 2 3.00928 20.0002 0.000171405 
845 1 5.50441 20.8687 -8.86232e-05 
847 2 3.99967 20 0.000587171 
678 2 5.50466 18.6064 0.000663896 
851 2 7.99982 20.0001 9.95319e-07 
848 2 7.00907 19.9999 -3.36179e-05 
849 1 9.50466 20.8686 -8.71665e-05 
855 2 11.9999 20.0005 -0.000552574 
682 2 9.50502 18.6063 -0.000249803 
852 2 11.0092 19.9996 -0.000348707 
853 1 13.5046 20.8691 -4.01278e-05 
686 2 13.5049 18.6063 0.000101379 
856 2 15.0093 20.0003 0.000580945 
857 1 17.5048 20.869 -0.000122387 
859 2 16.0002 20 -0.000319304 
690 2 17.5047 18.6063 9.26884e-05 
863 2 20.0002 20 -0.000188694 
860 2 19.0096 20.0005 0.000185991 
861 1 21.5048 20.8688 -0.000133289 
867 2 24.0001 20 0.000840164 
694 2 21.5043 18.6064 1.6247e-05 
864 2 23.0096 20.0002 -0.000199943 
865 1 25.5047 20.8691 0.00035824 
698 2 25.5052 18.6061 4.50308e-05 
868 2 27.0095 20.0006 -0.000466424 
869 1 29.5048 20.8686 1.7654e-05 
871 2 28.0003 19.9995 5.46989e-05 
702 2 29.5048 18.6062 0.000339223 
873 1 33.5046 20.8689 -3.06863e-05 
875 2 31.9999 20.0002 0.00021413 
706 2 33.5036 18.6066 -0.000361079 
872 2 31.0097 20.0003 -0.00054101 
842 2 1.5046 22.6064 -0.000369771 
846 2 5.50448 22.6062 -0.000819422 
850 2 9.50495 22.6061 8.62121e-05 
854 2 13.5047 22.6066 -0.000148755 
858 2 17.5045 22.6065 -0.000233849 
862 2 21.5047 22.6063 -1.123e-05 
866 2 25.5043 22.6066 0.00070098 
870 2 29.5043 22.6061 0.000539273 
874 2 33.5047 22.6064 -0.000288183 
2017 1 1.50481 0.8687 3.99989 
2019 2 7.44062e-05 1.83293e-05 3.99922 
2018 2 1.50489 2.6062 4.00053 
2020 2 3.00947 -0.000118984 3.99991 
2021 1 5.50499 0.868864 3.99995 
2023 2 4.00019 0.000299469 4.00033 
2022 2 5.50521 2.60636 3.99972 
2027 2 8.00011 -0.000150692 4.00032 
2024 2 7.00959 -7.18402e-05 3.9998 
2025 1 9.50465 0.868873 3.9999 
2031 2 11.9999 5.92531e-06 4.00058 
2026 2 9.50433 2.60637 3.99922 
2028 2 11.0095 0.000396686 4.00017 
2029 1 13.5047 0.868662 4.00001 
2030 2 13.5048 2.60616 4.00047 
2032 2 15.0093 -0.000181114 3.99899 
2033 1 17.5049 0.868727 4.00015 
2035 2 16.0001 7.98082e-05 4.0005 
2034 2 17.505 2.60623 4.00063 
2039 2 19.9999 -0.000108088 3.99931 
2036 2 19.0095 -0.00012512 3.99931 
2037 1 21.5046 0.868594 4 
2043 2 24 -9.29296e-05 3.99956 
2038 2 21.5047 2.60609 4.00023 
2040 2 23.0093 -0.000203473 4.00044 
2041 1 25.5046 0.868768 4.00009 
2042 2 25.5045 2.60627 4.00037 
2044 2 27.0094 0.000128676 4.00033 
2045 1 29.5047 0.868494 3.99999 
2047 2 28.0005 -0.00100271 3.9991 
2046 2 29.5039 2.60599 4.00122 
2049 1 33.5048 0.868535 3.99994 
2051 2 32 -0.000110125 4.00009 
2050 2 33.5049 2.60603 3.99906 
2048 2 31.0099 0.000491098 3.99965 
2185 1 1.50468 4.86883 3.99989 
2187 2 -0.000127429 4.00027 3.99973 
2188 2 3.00927 3.99989 4.00052 
2189 1 5.50444 4.86871 3.99998 
2191 2 3.9995 4.00039 4.00031 
2195 2 8.00015 3.99949 4.00058 
2192 2 7.0089 3.99954 4.00007 
2193 1 9.50466 4.86856 3.9999 
2199 2 11.9996 4.00028 4.00054 
2196 2 11.0096 4.00014 3.99981 
2197 1 13.5046 4.86862 4.00018 
2200 2 15.009 3.99946 3.99985 
2201 1 17.5046 4.86857 3.99978 
2203 2 16 3.99965 4.00021 
2207 2 20 4.00016 3.9993 
2204 2 19.0094 3.99998 3.9994 
2205 1 21.5047 4.86884 3.99978 
2211 2 23.9999 4.00068 4.00021 
2208 2 23.0094 4.00001 3.99895 
2209 1 25.5049 4.86894 4.00006 
2212 2 27.0093 3.9997 4.00027 
2213 1 29.5046 4.86854 3.99998 
2215 2 27.9999 3.99978 3.99996 
2217 1 33.5048 4.86883 4.00011 
2219 2 32.0002 3.99988 3.99922 
2216 2 31.0093 3.9998 4.00012 
2353 1 1.50455 8.86864 3.99988 
2355 2 -0.000224824 8.00003 3.99987 
2186 2 1.5049 6.60633 3.99941 
2356 2 3.00918 7.99976 4.0003 
2357 1 5.50464 8.86879 3.99997 
2359 2 4.00014 7.99971 3.99979 
2190 2 5.50493 6.60621 3.99954 
2363 2 8.00031 7.99933 3.99945 
2360 2 7.00954 8.00037 4.00048 
2361 1 9.50479 8.86847 4.00005 
2367 2 12 7.99965 4.00004 
2194 2 9.50429 6.60606 3.99931 
2364 2 11.0097 8.00011 4.0005 
2365 1 13.5046 8.8687 4.00017 
2198 2 13.505 6.60612 4.00015 
2368 2 15.0094 8.00025 3.99982 
2369 1 17.5046 8.86894 3.9999 
2371 2 16 8.00004 4.00019 
2202 2 17.5045 6.60607 3.99972 
2375 2 19.9998 8.00042 4.00018 
2372 2 19.0094 8.00034 4.00078 
2373 1 21.5048 8.86862 4.00015 
2379 2 23.9998 8.00014 4.00112 
2206 2 21.5048 6.60634 4.00108 
2376 2 23.0092 7.99932 3.99985 
2377 1 25.5045 8.86888 3.99996 
2210 2 25.5054 6.60644 3.9997 
2380 2 27.0092 8.00012 3.99992 
2381 1 29.5046 8.86874 4.00027 
2383 2 28 7.99986 4.0007 
2214 2 29.5046 6.60604 3.99987 
2385 1 33.5047 8.86883 4 
2387 2 32.0001 7.9999 4.00059 
2218 2 33.5046 6.60633 4.00048 
2384 2 31.0094 8.00011 4.00047 
2354 2 1.50471 10.6061 3.99947 
2358 2 5.50426 10.6063 3.99964 
2362 2 9.50434 10.606 4.0002 
2366 2 13.5042 10.6062 4.00064 
2370 2 17.5045 10.6064 3.99873 
2374 2 21.5054 10.6061 4.00044 
2378 2 25.5045 10.6064 3.99883 
2382 2 29.5045 10.6062 3.99966 
2386 2 33.5044 10.6063 3.99973 
2521 1 1.50469 12.8687 3.99999 
2523 2 -0.000340265 12.0005 4.00012 
2522 2 1.50535 14.6062 3.99984 
2524 2 3.00906 11.9993 4.00001 
2525 1 5.50485 12.8688 3.99987 
2527 2 4.00006 12.0002 3.99924 
2526 2 5.50502 14.6063 3.99982 
2531 2 7.9999 12.0001 4.00001 
2528 2 7.00946 11.9999 4.00055 
2529 1 9.50461 12.8688 3.99999 
2535 2 12.0002 11.9999 3.99998 
2530 2 9.50462 14.6063 3.99986 
2532 2 11.0093 12 4.00011 
2533 1 13.5047 12.8689 4.00012 
2534 2 13.5044 14.6064 4.00014 
2536 2 15.0096 12.0004 4.00025 
2537 1 17.5047 12.8687 4.00005 
2539 2 15.9997 12.0006 4.00071 
2538 2 17.5054 14.6062 4.00008 
2543 2 20.0002 12.0002 4.00066 
2540 2 19.0091 11.9993 3.99935 
2541 1 21.5049 12.8689 4 
2547 2 24 12 3.99989 
2542 2 21.505 14.6064 3.99996 
2544 2 23.0096 12.0001 3.99936 
2545 1 25.5048 12.8685 4.00017 
2546 2 25.5051 14.606 3.99956 
2548 2 27.0094 11.9995 4.00106 
2549 1 29.5048 12.8689 3.99994 
2551 2 28.0002 11.9999 3.99909 
2550 2 29.5046 14.6064 4.00024 
2553 1 33.5045 12.8688 4.00015 
2555 2 31.9996 12.0003 4.00043 
2554 2 33.5048 14.6063 3.99925 
2552 2 31.0096 12.0003 4.00047 
2689 1 1.50478 16.8688 3.99996 
2691 2 6.1094e-05 16.0001 4.00018 
2692 2 3.00946 16 3.99923 
2693 1 5.50465 16.8688 3.99983 
2695 2 3.99975 16.0004 3.99981 
2699 2 8.00006 15.9998 3.99991 
2696 2 7.00915 15.9997 4.00028 
2697 1 9.50473 16.8686 3.99993 
2703 2 12 16 3.99876 
2700 2 11.0095 15.9999 3.99964 
2701 1 13.5047 16.8687 3.99983 
2704 2 15.0094 16 4.00021 
2705 1 17.5046 16.8688 3.99995 
2707 2 16.0001 15.9997 3.9997 
2711 2 20.0003 15.9997 4.00078 
2708 2 19.0095 16.0003 3.99959 
2709 1 21.5049 16.8687 3.9999 
2715 2 23.9999 16.0002 3.99929 
2712 2 23.0097 16.0002 3.99935 
2713 1 25.5048 16.8688 4.00012 
2716 2 27.0093 15.9998 4.00018 
2717 1 29.5049 16.8688 3.99992 
2719 2 28.0003 15.9998 3.99991 
2721 1 33.5049 16.8687 4.00006 
2723 2 32.0004 15.9996 4.00054 
2720 2 31.0097 16.0003 4.00055 
2857 1 1.50462 20.8687 4.00007 
2859 2 -0.00025469 20.0003 4.00031 
2690 2 1.50482 18.6063 4.00046 
2860 2 3.00915 19.9996 4 
2861 1 5.50473 20.8687 3.99993 
2863 2 4.00003 20 3.99975 
2694 2 5.50505 18.6063 3.99939 
2867 2 8 19.9998 4.00024 
2864 2 7.00943 20 4.00003 
2865 1 9.50459 20.8687 4.00001 
2871 2 12.0002 19.9995 3.99982 
2698 2 9.50466 18.6061 4.00025 
2868 2 11.0094 20.0002 3.99936 
2869 1 13.5047 20.8686 3.99993 
2702 2 13.5047 18.6062 4.00051 
2872 2 15.0096 20.0002 4.0005 
2873 1 17.5046 20.8687 3.99979 
2875 2 15.9995 20.0006 3.99956 
2706 2 17.5043 18.6063 4.00055 
2879 2 19.9996 20.0005 3.9991 
2876 2 19.0089 19.9992 3.99943 
2877 1 21.5047 20.8686 3.99998 
2883 2 24.0001 19.9998 4.00003 
2710 2 21.5046 18.6062 3.99956 
2880 2 23.009 19.9992 3.99975 
2881 1 25.5048 20.8686 3.99984 
2714 2 25.505 18.6063 4.00089 
2884 2 27.0095 20 3.99955 
2885 1 29.5048 20.8688 3.99982 
2887 2 28 20.0002 3.99873 
2718 2 29.5046 18.6063 3.99928 
2889 1 33.5047 20.8689 3.99996 
2891 2 31.9996 20.0008 3.99997 
2722 2 33.5045 18.6062 3.99943 
2888 2 31.0094 19.9999 3.99999 
2858 2 1.50498 22.6062 3.99991 
2862 2 5.50472 22.6062 4 
2866 2 9.50435 22.6062 4.00043 
2870 2 13.5044 22.6061 3.99947 
2874 2 17.5054 22.6062 4.00036 
2878 2 21.5054 22.6061 4.00108 
2882 2 25.5046 22.6061 3.99995 
2886 2 29.505 22.6063 4.00076 
2890 2 33.5054 22.6064 3.99968 
4033 1 1.50466 0.868574 8.00012 
4035 2 -0.000113139 -5.74686e-05 7.99895 
4034 2 1.50479 2.60607 8.00082 
4036 2 3.00929 -0.000294987 8.0006 
4037 1 5.50492 0.868815 8.00016 
4039 2 4.0004 -0.000243925 7.99946 
4038 2 5.50457 2.60631 8.00051 
4043 2 7.99981 0.000240697 7.99981 
4040 2 7.0098 0.000373693 8.0005 
4041 1 9.50457 0.86888 7.99991 
4047 2 12.0002 -0.000414455 7.99915 
4042 2 9.5047 2.60638 8.00007 
4044 2 11.0092 1.95161e-05 7.99984 
4045 1 13.5048 0.868515 8.00007 
4046 2 13.5045 2.60602 8.00052 
4048 2 15.0096 -5.47371e-05 8.00054 
4049 1 17.5048 0.868825 8.00026 
4051 2 16 0.000239127 8.00031 
4050 2 17.505 2.60633 8.00011 
4055 2 19.9999 -0.000166423 7.99958 
4052 2 19.0094 -8.87861e-05 8.00038 
4053 1 21.5045 0.868699 7.99978 
4059 2 23.9999 0.000148025 8.00013 
4054 2 21.5044 2.6062 7.99988 
4056 2 23.0093 6.48964e-05 7.99989 
4057 1 25.5047 0.868743 7.99962 
4058 2 25.5049 2.60624 8.00038 
4060 2 27.0093 -0.000161606 7.99836 
4061 1 29.5049 0.868867 8.00009 
4063 2 28.0003 -0.000125899 8.00007 
4062 2 29.5046 2.60637 8.00037 
4065 1 33.5049 0.868631 7.9999 
4067 2 32.0004 -0.000428906 7.99969 
4066 2 33.5046 2.60613 8.00013 
4064 2 31.0097 0.000360604 7.99981 
4201 1 1.50487 4.86887 8.00002 
4203 2 0.000563149 3.99944 7.99993 
4204 2 3.00996 4.0008 7.99948 
4205 1 5.50472 4.86872 8.00017 
4207 2 4.00018 3.9997 7.99983 
4211 2 7.99977 4.00022 8.00091 
4208 2 7.00958 4.00024 8.00029 
4209 1 9.5046 4.86873 8.00014 
4215 2 12.0002 3.99975 7.99928 
4212 2 11.0092 3.99975 7.99955 
4213 1 13.5047 4.86876 7.99982 
4216 2 15.0096 4.00026 7.99981 
4217 1 17.5049 4.86904 8.00011 
4219 2 16.0002 4.00026 8.00043 
4223 2 19.9995 4.0005 7.99968 
4220 2 19.0096 4.00032 8.00032 
4221 1 21.5045 4.86871 7.99998 
4227 2 24.0002 3.99954 8.0006 
4224 2 23.0089 3.99943 8.0001 
4225 1 25.5046 4.86871 8.00005 
4228 2 27.0096 4.00038 7.99998 
4229 1 29.5046 4.86858 7.99992 
4231 2 27.9998 4.00011 7.99969 
4233 1 33.5048 4.86868 7.99998 
4235 2 32.0001 3.99986 7.9996 
4232 2 31.0092 3.99955 7.9993 
4369 1 1.50458 8.86876 8.00014 
4371 2 -0.000121498 8.00001 7.99994 
4202 2 1.50409 6.60637 8.00067 
4372 2 3.00928 8 7.99998 
4373 1 5.5047 8.869 8.00022 
4375 2 4.00035 7.99965 8.00025 
4206 2 5.5044 6.60622 8.00039 
4379 2 7.99986 8.00008 7.99987 
4376 2 7.00975 8.00085 7.99956 
4377 1 9.50459 8.86878 7.99997 
4383 2 11.9997 8.00021 8.00032 
4210 2 9.50488 6.60623 7.99995 
4380 2 11.0093 7.99998 8 
4381 1 13.5045 8.86882 7.99999 
4214 2 13.5044 6.60626 8.00038 
4384 2 15.0091 7.99993 7.99954 
4385 1 17.5046 8.86859 8.00016 
4387 2 16 7.99981 7.99888 
4218 2 17.5049 6.60654 7.99959 
4391 2 20 7.99983 8.00024 
4388 2 19.0094 7.99987 8.00135 
4389 1 21.5047 8.86871 7.99983 
4395 2 23.9999 8.00051 8.00044 
4222 2 21.5052 6.60621 8.00016 
4392 2 23.0094 8.0001 7.99948 
4393 1 25.5048 8.86893 7.99991 
4226 2 25.5041 6.60621 7.99957 
4396 2 27.0093 7.99985 8.00039 
4397 1 29.5047 8.86861 8.00016 
4399 2 28 7.99969 7.99972 
4230 2 29.505 6.60608 8.00076 
4401 1 33.5046 8.86873 8.00008 
4403 2 31.9999 7.99992 7.99915 
4234 2 33.5047 6.60618 8.00059 
4400 2 31.0094 8.00003 7.99985 
4370 2 1.50458 10.6063 8.0005 
4374 2 5.504 10.6065 8.00084 
4378 2 9.50464 10.6063 8.00004 
4382 2 13.5046 10.6063 8.00011 
4386 2 17.5046 10.6061 8.00023 
4390 2 21.5045 10.6062 7.99978 
4394 2 25.5052 10.6064 7.99891 
4398 2 29.5045 10.6061 8.00089 
4402 2 33.5045 10.6062 8.0003 
4537 1 1.5046 12.8689 7.99996 
4539 2 -1.48767e-05 12 8.00018 
4538 2 1.50442 14.6064 7.99979 
4540 2 3.00939 12.0003 7.99992 
4541 1 5.50461 12.8687 7.99999 
4543 2 3.99965 12.0005 7.99934 
4542 2 5.50514 14.6062 8.00011 
4547 2 7.99993 12 7.99986 
4544 2 7.00905 11.9995 8.00052 
4545 1 9.50459 12.8688 8.00012 
4551 2 11.9998 12 8.00016 
4546 2 9.50451 14.6063 8.00017 
4548 2 11.0093 12.0001 8.00034 
4549 1 13.5046 12.8687 8.00013 
4550 2 13.5047 14.6062 8.0004 
4552 2 15.0092 11.9998 7.99983 
4553 1 17.5047 12.8687 8.00014 
4555 2 16.0001 11.9998 8.00012 
4554 2 17.5045 14.6062 7.99978 
4559 2 19.9998 12.0001 7.99921 
4556 2 19.0095 12.0001 8.00051 
4557 1 21.5046 12.8686 8.00013 
4563 2 24.0001 12.0002 7.99971 
4558 2 21.505 14.6061 8.00058 
4560 2 23.0092 11.9996 8.0006 
4561 1 25.5049 12.8688 8.00006 
4562 2 25.5051 14.6063 7.99984 
4564 2 27.0095 11.9999 8.00064 
4565 1 29.5047 12.8688 8.00013 
4567 2 27.9998 12.0003 8.00086 
4566 2 29.5051 14.6063 7.99877 
4569 1 33.5048 12.8688 8.00007 
4571 2 32.0002 11.9998 7.99964 
4570 2 33.5046 14.6063 8.00007 
4568 2 31.0092 11.9997 8.00075 
4705 1 1.50462 16.8688 7.99993 
4707 2 0.000293742 15.9994 7.99982 
4708 2 3.00969 16.0007 7.99965 
4709 1 5.50464 16.8689 7.99997 
4711 2 3.99985 16.0003 8.00015 
4715 2 8.00002 16 7.99959 
4712 2 7.00925 16 8.0001 
4713 1 9.50472 16.8688 7.99998 
4719 2 11.9999 15.9997 8.00055 
4716 2 11.0094 16 8.00077 
4717 1 13.5045 16.8687 8.00014 
4720 2 15.0093 16.0002 7.99965 
4721 1 17.5048 16.8685 8.00003 
4723 2 16.0001 15.9997 7.99953 
4727 2 20.0002 15.9997 7.99875 
4724 2 19.0095 15.9997 8.00072 
4725 1 21.5048 16.8687 7.99983 
4731 2 24 15.9997 7.99994 
4728 2 23.0096 16.0002 8.00046 
4729 1 25.5045 16.8687 8.00016 
4732 2 27.0094 16.0002 8.00055 
4733 1 29.5046 16.8689 7.99996 
4735 2 27.9999 16.0002 7.99968 
4737 1 33.5047 16.8689 8.00023 
4739 2 32.0001 16 8.00035 
4736 2 31.0093 16.0001 8.00007 
4873 1 1.50466 20.8687 8.00015 
4875 2 -0.000236709 20.0003 8.00068 
4706 2 1.50388 18.6063 8.00033 
4876 2 3.00916 19.9996 7.99964 
4877 1 5.50458 20.8686 7.99989 
4879 2 3.99997 19.9997 7.9994 
4710 2 5.50482 18.6064 7.99967 
4883 2 8.00021 19.9996 7.99901 
4880 2 7.00937 20 7.99971 
4881 1 9.50473 20.8686 8.00005 
4887 2 12 19.9998 8.00037 
4714 2 9.50472 18.6063 7.99957 
4884 2 11.0096 20.0002 8.00091 
4885 1 13.5046 20.8687 8.00003 
4718 2 13.5042 18.6062 8.00021 
4888 2 15.0094 20 8.00068 
4889 1 17.5046 20.8686 8.00009 
4891 2 15.9996 20.0004 8.00037 
4722 2 17.5048 18.606 7.99985 
4895 2 20 19.9999 8.0002 
4892 2 19.009 19.9992 7.9999 
4893 1 21.5047 20.8686 7.99998 
4899 2 23.9996 20.0003 7.99912 
4726 2 21.5045 18.6062 8.00027 
4896 2 23.0094 19.9998 7.9999 
4897 1 25.5045 20.8687 8.00007 
4730 2 25.5042 18.6062 7.99998 
4900 2 27.009 19.9997 8.0004 
4901 1 29.5047 20.8689 7.99996 
4903 2 28.0001 20 7.99982 
4734 2 29.5047 18.6064 8.00014 
4905 1 33.5046 20.8689 7.99976 
4907 2 31.9997 20.0005 8.00011 
4738 2 33.5045 18.6064 8.00022 
4904 2 31.0095 20.0004 8.00025 
4874 2 1.50505 22.6062 8.00012 
4878 2 5.50441 22.6061 8.00056 
4882 2 9.50437 22.6061 8.00022 
4886 2 13.5045 22.6062 7.99906 
4890 2 17.5053 22.6061 7.99999 
4894 2 21.5048 22.6061 7.99983 
4898 2 25.5048 22.6062 8.00068 
4902 2 29.5045 22.6064 7.99981 
4906 2 33.505 22.6064 7.9991 
6049 1 1.50458 0.868628 12 
6051 2 0.000115016 -0.000521837 11.9999 
6050 2 1.50412 2.60613 12.0004 
6052 2 3.00951 0.000278306 11.9999 
6053 1 5.50473 0.86864 11.9999 
6055 2 3.99991 9.35574e-05 12.0008 
6054 2 5.50496 2.60614 11.9991 
6059 2 7.99986 -0.000329812 12.0006 
6056 2 7.00931 -0.000313399 11.9999 
6057 1 9.50451 0.868509 12 
6063 2 11.9995 0.000510032 12 
6058 2 9.50441 2.60601 11.9997 
6060 2 11.0093 -0.000152298 11.9996 
6061 1 13.5044 0.868801 12 
6062 2 13.5049 2.6063 11.9996 
6064 2 15.0089 -0.000408293 12.0003 
6065 1 17.5047 0.868922 12.0001 
6067 2 16.0002 -0.000173683 12.0003 
6066 2 17.5043 2.60642 11.9991 
6071 2 20.0001 -2.31438e-05 12.0002 
6068 2 19.0096 0.000517984 12.0007 
6069 1 21.5047 0.868897 12 
6075 2 23.9998 -0.000251324 11.9998 
6070 2 21.5045 2.6064 11.9997 
6072 2 23.0095 0.000316962 12.0001 
6073 1 25.5045 0.868529 11.9999 
6074 2 25.5045 2.60603 12.0006 
6076 2 27.0092 -0.000190177 11.9993 
6077 1 29.5048 0.868625 12 
6079 2 28 -4.12672e-05 12.0007 
6078 2 29.5049 2.60613 11.9997 
6081 1 33.5047 0.868789 12.0002 
6083 2 31.9997 0.000560564 11.9999 
6082 2 33.5053 2.60629 12.0001 
6080 2 31.0094 -0.000208621 11.9997 
6217 1 1.5045 4.8688 12 
6219 2 -0.000520056 4.0006 12.0005 
6220 2 3.00888 3.9995 11.9996 
6221 1 5.50474 4.8687 12.0001 
6223 2 3.99963 4.00065 12.0001 
6227 2 8.00011 4.0001 11.9998 
6224 2 7.00903 3.99924 12.0001 
6225 1 9.50478 4.8689 12.0002 
6231 2 12.0001 4.00029 12.0005 
6228 2 11.0095 4.0002 12.0003 
6229 1 13.5049 4.86892 11.9999 
6232 2 15.0095 4.00005 11.999 
6233 1 17.5048 4.86873 12.0002 
6235 2 16.0001 3.99992 11.9995 
6239 2 19.9994 4.0003 11.9999 
6236 2 19.0095 4.00003 11.9998 
6237 1 21.5043 4.86866 12 
6243 2 24.0002 3.99946 12.0006 
6240 2 23.0088 3.99952 12.0006 
6241 1 25.5046 4.86862 12 
6244 2 27.0096 4.00027 12 
6245 1 29.5046 4.86882 11.9998 
6247 2 27.9998 4.00024 11.9997 
6249 1 33.5049 4.86875 11.9999 
6251 2 31.9998 4.00081 12.0003 
6248 2 31.0092 3.99991 11.9997 
6385 1 1.5046 8.8686 12 
6387 2 -6.11119e-05 7.99977 11.9996 
6218 2 1.50513 6.6063 12 
6388 2 3.00934 7.99992 12.0001 
6389 1 5.50453 8.86863 12.0001 
6391 2 3.99985 7.99986 11.9999 
6222 2 5.50555 6.6062 12.0002 
6395 2 8.00009 7.99997 12.0001 
6392 2 7.00925 7.99991 11.999 
6393 1 9.50477 8.86876 11.9998 
6399 2 11.9999 8.00018 12 
6226 2 9.50472 6.6064 12.0005 
6396 2 11.0095 8.00005 11.9998 
6397 1 13.5047 8.86871 11.9999 
6230 2 13.505 6.60642 12.0002 
6400 2 15.0093 7.99974 11.9995 
6401 1 17.5047 8.86862 12 
6403 2 15.9998 8.00032 12.0011 
6234 2 17.5047 6.60623 12.0015 
6407 2 20.0002 7.99992 12.0004 
6404 2 19.0092 7.99941 11.9987 
6405 1 21.5048 8.86885 12.0003 
6411 2 24.0002 8.00005 11.9994 
6238 2 21.5048 6.60616 11.9995 
6408 2 23.0096 8.00029 12.0005 
6409 1 25.5049 8.86869 11.9999 
6242 2 25.5041 6.60612 11.9996 
6412 2 27.0096 7.99982 12.0007 
6413 1 29.5048 8.86902 11.9999 
6415 2 28.0002 8.00005 12 
6246 2 29.5048 6.60632 12 
6417 1 33.5048 8.86873 11.9999 
6419 2 32.0001 8.00005 12.0005 
6250 2 33.5059 6.60625 11.9995 
6416 2 31.0096 8.00049 11.9995 
6386 2 1.50451 10.6061 12.0003 
6390 2 5.50451 10.6061 12.0014 
6394 2 9.50473 10.6063 11.9996 
6398 2 13.5049 10.6062 12.0004 
6402 2 17.5053 10.6061 12.0002 
6406 2 21.5046 10.6064 11.9999 
6410 2 25.5051 10.6062 11.9995 
6414 2 29.5045 10.6065 12.0002 
6418 2 33.5049 10.6062 11.9997 
6553 1 1.50447 12.8689 12 
6555 2 -0.000196788 12.0001 12 
6554 2 1.5044 14.6064 11.9999 
6556 2 3.0092 12.0002 12.0001 
6557 1 5.50462 12.8687 12.0001 
6559 2 3.99991 12 12.0005 
6558 2 5.50463 14.6062 11.9992 
6563 2 8.00009 12 11.9995 
6560 2 7.00931 12 12.0005 
6561 1 9.50469 12.8689 12.0001 
6567 2 12 12.0001 12.0012 
6562 2 9.50451 14.6064 12.0005 
6564 2 11.0095 12.0003 12.0002 
6565 1 13.5048 12.8687 12.0001 
6566 2 13.5049 14.6062 11.9992 
6568 2 15.0094 11.9999 11.9999 
6569 1 17.5046 12.8685 11.9998 
6571 2 16.0002 11.9993 12.0009 
6570 2 17.5041 14.606 11.999 
6575 2 20.0001 11.9999 12.0003 
6572 2 19.0096 12.0002 11.9995 
6573 1 21.5047 12.8688 12.0001 
6579 2 23.9996 12.0002 11.9998 
6574 2 21.5044 14.6063 11.9998 
6576 2 23.0095 12.0003 12 
6577 1 25.5045 12.8687 12 
6578 2 25.5048 14.6062 12.0004 
6580 2 27.009 11.9997 11.9996 
6581 1 29.5049 12.8688 12.0001 
6583 2 28.0003 11.9998 11.9998 
6582 2 29.5046 14.6063 12.0001 
6585 1 33.5047 12.8688 12 
6587 2 31.9999 12.0001 11.999 
6586 2 33.5048 14.6063 12.0004 
6584 2 31.0097 12.0003 12.0006 
6721 1 1.50467 16.8689 12 
6723 2 -8.1353e-05 16.0002 12.0004 
6724 2 3.00932 16 11.9996 
6725 1 5.50472 16.8688 12.0001 
6727 2 4.00009 15.9999 11.9993 
6731 2 8.0001 15.9999 11.9996 
6728 2 7.00949 16.0001 12.0002 
6729 1 9.50476 16.8687 11.9998 
6735 2 11.9999 15.9998 12.0007 
6732 2 11.0095 16 11.9999 
6733 1 13.5045 16.8688 12 
6736 2 15.0093 16.0002 12.0003 
6737 1 17.505 16.8687 11.9999 
6739 2 16.0001 16.0003 11.9995 
6743 2 20.0003 15.9998 11.9993 
6740 2 19.0095 15.9996 11.9996 
6741 1 21.5047 16.8691 12 
6747 2 24 16.0002 12.0003 
6744 2 23.0097 16.0008 12.0003 
6745 1 25.5047 16.869 11.9999 
6748 2 27.0094 16.0002 11.9987 
6749 1 29.5048 16.8691 12 
6751 2 28 16.0004 12 
6753 1 33.5046 16.8686 12.0001 
6755 2 32.0001 15.9995 12.0005 
6752 2 31.0094 16.0003 11.9997 
6889 1 1.50456 20.8689 12.0002 
6891 2 -0.000150642 20.0002 12.001 
6722 2 1.50476 18.6064 12 
6892 2 3.00925 20.0002 11.9997 
6893 1 5.5046 20.8688 12 
6895 2 3.99992 20 11.9995 
6726 2 5.50457 18.6062 12.0007 
6899 2 7.99998 20.0002 12 
6896 2 7.00932 20 11.9998 
6897 1 9.50473 20.8689 12 
6903 2 11.9996 20.0006 11.9989 
6730 2 9.50469 18.6062 12.0001 
6900 2 11.0094 20 12.0004 
6901 1 13.5046 20.8689 12.0001 
6734 2 13.5042 18.6063 11.9991 
6904 2 15.009 19.9997 12.0014 
6905 1 17.5047 20.8686 11.9999 
6907 2 15.9999 20.0001 11.9998 
6738 2 17.5054 18.6062 12.0007 
6911 2 19.9996 20.0004 12.0007 
6908 2 19.0093 19.9997 12.0002 
6909 1 21.5044 20.869 11.9999 
6915 2 24 19.9995 11.9998 
6742 2 21.5042 18.6066 12.0005 
6912 2 23.009 20.0001 11.9997 
6913 1 25.5046 20.8685 12 
6746 2 25.5046 18.6065 12.0007 
6916 2 27.0094 20.0001 11.9992 
6917 1 29.5044 20.8686 11.9998 
6919 2 27.9999 19.9996 11.9998 
6750 2 29.5049 18.6066 12.0002 
6921 1 33.5048 20.8687 12 
6923 2 31.9998 20.0003 12.0012 
6754 2 33.5042 18.6061 12 
6920 2 31.0093 20.0001 11.9992 
6890 2 1.50457 22.6064 11.9999 
6894 2 5.50455 22.6063 12.0006 
6898 2 9.50485 22.6064 11.9998 
6902 2 13.5051 22.6064 12 
6906 2 17.505 22.6061 11.9999 
6910 2 21.5046 22.6065 11.9993 
6914 2 25.5042 22.606 12.0008 
6918 2 29.5041 22.6061 12.0006 
6922 2 33.5052 22.6062 11.9987 
8065 1 1.50503 0.868601 16.0001 
8067 2 0.000466372 -0.000381586 16.0003 
8066 2 1.50476 2.6061 15.9998 
8068 2 3.00987 8.4283e-05 16.0001 
8069 1 5.50469 0.868728 15.9999 
8071 2 3.99989 0.000144788 15.9998 
8070 2 5.50488 2.60623 16.0003 
8075 2 7.99994 -2.59014e-05 16 
8072 2 7.00929 -0.000189273 15.9997 
8073 1 9.50463 0.868731 16.0002 
8079 2 11.9999 0.000257259 15.9998 
8074 2 9.50463 2.60623 15.9998 
8076 2 11.0093 -1.17693e-05 16.0007 
8077 1 13.5046 0.868898 16 
8078 2 13.5048 2.6064 16.0004 
8080 2 15.0093 3.8054e-05 15.9999 
8081 1 17.5048 0.86904 16.0002 
8083 2 16.0004 -0.000212006 16.0001 
8082 2 17.5042 2.60654 16.001 
8087 2 20.0001 -0.000292279 16.0003 
8084 2 19.0098 0.000791441 15.9995 
8085 1 21.5046 0.86878 16 
8091 2 23.9999 3.56508e-05 15.9999 
8086 2 21.5042 2.60628 16.0003 
8088 2 23.0095 0.000351579 15.9992 
8089 1 25.5047 0.868612 15.9999 
8090 2 25.5049 2.60611 16 
8092 2 27.0093 -0.000311889 15.9997 
8093 1 29.5048 0.868861 16 
8095 2 28 0.000226828 16.0001 
8094 2 29.5049 2.60636 16.0001 
8097 1 33.5047 0.86881 16 
8099 2 31.9999 0.000159611 15.9991 
8098 2 33.5048 2.60631 16.0001 
8096 2 31.0094 -3.89805e-06 16 
8233 1 1.50469 4.86895 15.9999 
8235 2 0.000109704 4 15.9997 
8236 2 3.00951 4.0004 15.9999 
8237 1 5.50469 4.86862 15.9998 
8239 2 3.99943 4.00084 15.9994 
8243 2 7.99985 4.0002 16.0003 
8240 2 7.00883 3.9989 15.9998 
8241 1 9.50462 4.86883 15.9999 
8247 2 12.0001 3.99989 15.9999 
8244 2 11.0092 3.99995 15.9987 
8245 1 13.5047 4.86881 16.0001 
8248 2 15.0095 4.00022 16.0003 
8249 1 17.5048 4.86855 15.9999 
8251 2 16.0003 3.99957 15.9998 
8255 2 19.9997 4.00031 15.9991 
8252 2 19.0097 4.00003 16 
8253 1 21.5047 4.86859 15.9999 
8259 2 24 3.99972 16 
8256 2 23.0091 3.99937 16.0004 
8257 1 25.5044 4.86898 15.9999 
8260 2 27.0094 4.00073 15.9994 
8261 1 29.5048 4.86868 16.0002 
8263 2 28.0001 3.99985 16.0001 
8265 1 33.5047 4.86868 15.9999 
8267 2 32.0001 3.99991 16.0004 
8264 2 31.0095 4.00001 16.0006 
8401 1 1.50481 8.86863 15.9998 
8403 2 0.000331804 7.9995 15.9997 
8234 2 1.50446 6.60645 15.9999 
8404 2 3.00973 8.00025 15.9996 
8405 1 5.50466 8.86877 16.0001 
8407 2 4.00026 7.99949 16 
8238 2 5.50581 6.60612 16.0003 
8411 2 8.00017 7.99991 15.9993 
8408 2 7.00966 8.00055 16.0002 
8409 1 9.50475 8.86887 16.0003 
8415 2 11.9998 8.00024 15.9995 
8242 2 9.50476 6.60633 16.0006 
8412 2 11.0096 8.00032 16.0009 
8413 1 13.5048 8.86861 16.0001 