LAMMPS Description

           6336 atoms
           0 bonds
           0 angles
        0 dihedrals
        0 impropers

        2 atom types
        0  bond types
        0 angle types
        0 dihedral types
        0 improper types

0.0000000000000000e+00 1.6800000000000000e+02 xlo xhi
0.0000000000000000e+00 4.8000000000000000e+01 ylo yhi
0.0000000000000000e+00 4.8000000000000000e+01 zlo zhi

Masses

        1       20.0
        2       1.0


Atoms

    1     1  1    0.00         13.50459957     0.86869800     0.00010884
    2     1  2    0.00         13.50450039     2.60619998     0.00058862
    3     1  2    0.00         11.99989986    -0.00012544    -0.00027153
    4     1  2    0.00         15.00930023     0.00002175     0.00000942
    5     2  1    0.00         17.50499916     0.86873502    -0.00005805
    6     2  2    0.00         17.50510025     2.60623002     0.00002117
    7     2  2    0.00         16.00020027     0.00013048     0.00013818
    8     2  2    0.00         19.00959969    -0.00016142    -0.00033351
    9     3  1    0.00         21.50460052     0.86875200     0.00007775
   10     3  2    0.00         21.50410080     2.60625005     0.00099369
   11     3  2    0.00         20.00009918    -0.00043431    -0.00064193
   12     3  2    0.00         23.00950050     0.00043849    -0.00011850
   13     4  1    0.00         25.50469971     0.86902303    -0.00002311
   14     4  2    0.00         25.50460052     2.60651994     0.00018317
   15     4  2    0.00         24.00009918     0.00020103     0.00001087
   16     4  2    0.00         27.00950050     0.00034571    -0.00026339
   17     5  1    0.00         29.50469971     0.86871898     0.00009032
   18     5  2    0.00         29.50480080     2.60622001     0.00042890
   19     5  2    0.00         27.99990082     0.00010196     0.00042852
   20     5  2    0.00         31.00930023    -0.00016299    -0.00058646
   21     6  1    0.00         33.50460052     0.86871600    -0.00007407
   22     6  2    0.00         33.50500107     2.60622001     0.00027221
   23     6  2    0.00         31.99970055     0.00032250     0.00011070
   24     6  2    0.00         35.00910187    -0.00039022    -0.00060511
   25     7  1    0.00         37.50479889     0.86897898     0.00001713
   26     7  2    0.00         37.50479889     2.60647988    -0.00099695
   27     7  2    0.00         36.00009918     0.00026179    -0.00006952
   28     7  2    0.00         39.00949860     0.00019558     0.00111786
   29     8  1    0.00         41.50500107     0.86878300     0.00009652
   30     8  2    0.00         41.50510025     2.60628009     0.00073404
   31     8  2    0.00         40.00019836     0.00012854    -0.00049454
   32     8  2    0.00         43.00960159    -0.00006317     0.00005006
   33     9  1    0.00         45.50479889     0.86863202     0.00001087
   34     9  2    0.00         45.50460052     2.60612988    -0.00047373
   35     9  2    0.00         44.00030136    -0.00035179     0.00042411
   36     9  2    0.00         47.00970078     0.00011681     0.00008222
   37    10  1    0.00         49.50450134     0.86902303    -0.00000786
   38    10  2    0.00         49.50439835     2.60651994    -0.00002416
   39    10  2    0.00         47.99990082     0.00013824     0.00052075
   40    10  2    0.00         51.00930023     0.00040746    -0.00052018
   41    11  1    0.00         53.50450134     0.86864197    -0.00002629
   42    11  2    0.00         53.50500107     2.60613990    -0.00006855
   43    11  2    0.00         51.99959946     0.00030910     0.00078239
   44    11  2    0.00         55.00899887    -0.00052415    -0.00079270
   45    12  1    0.00         13.50479984     4.86869001     0.00016780
   46    12  2    0.00         13.50440025     6.60619020     0.00042077
   47    12  2    0.00         12.00020027     3.99965000     0.00005619
   48    12  2    0.00         15.00959969     4.00022984     0.00002643
   49    13  1    0.00         17.50449944     4.86884022    -0.00001053
   50    13  2    0.00         17.50499916     6.60633993    -0.00085613
   51    13  2    0.00         15.99960041     4.00045013     0.00043546
   52    13  2    0.00         19.00900078     3.99973989     0.00038909
   53    14  1    0.00         21.50460052     4.86868000    -0.00008106
   54    14  2    0.00         21.50469971     6.60618019     0.00071359
   55    14  2    0.00         19.99979973     4.00004005    -0.00042502
   56    14  2    0.00         23.00919914     3.99980998    -0.00053174
   57    15  1    0.00         25.50460052     4.86872005    -0.00017546
   58    15  2    0.00         25.50489998     6.60621977     0.00023047
   59    15  2    0.00         23.99970055     4.00028992    -0.00011459
   60    15  2    0.00         27.00909996     3.99965000    -0.00064227
   61    16  1    0.00         29.50480080     4.86884022    -0.00014663
   62    16  2    0.00         29.50510025     6.60633993     0.00003421
   63    16  2    0.00         28.00000000     4.00029993     0.00034286
   64    16  2    0.00         31.00939941     3.99989009    -0.00081697
   65    17  1    0.00         33.50460052     4.86872005    -0.00007934
   66    17  2    0.00         33.50439835     6.60621977    -0.00017698
   67    17  2    0.00         32.00000000     3.99979997    -0.00030289
   68    17  2    0.00         35.00939941     4.00014019     0.00024184
   69    18  1    0.00         37.50460052     4.86856985    -0.00000737
   70    18  2    0.00         37.50469971     6.60607004     0.00013089
   71    18  2    0.00         35.99980164     3.99991989    -0.00007618
   72    18  2    0.00         39.00920105     3.99972010    -0.00007681
   73    19  1    0.00         41.50469971     4.86880016    -0.00021464
   74    19  2    0.00         41.50450134     6.60629988    -0.00052448
   75    19  2    0.00         40.00009918     3.99988008    -0.00025875
   76    19  2    0.00         43.00949860     4.00020981     0.00013930
   77    20  1    0.00         45.50460052     4.86881018    -0.00016680
   78    20  2    0.00         45.50450134     6.60630989     0.00002649
   79    20  2    0.00         43.99990082     4.00004005    -0.00139107
   80    20  2    0.00         47.00930023     4.00008011     0.00086416
   81    21  1    0.00         49.50469971     4.86870003     0.00010552
   82    21  2    0.00         49.50439835     6.60620022    -0.00049332
   83    21  2    0.00         48.00019836     3.99970007     0.00060444
   84    21  2    0.00         51.00960159     4.00019979     0.00020544
   85    22  1    0.00         53.50469971     4.86877012    -0.00001816
   86    22  2    0.00         53.50460052     6.60626984     0.00034335
   87    22  2    0.00         52.00009918     3.99994993    -0.00007673
   88    22  2    0.00         55.00949860     4.00008011    -0.00032110
   89    23  1    0.00         13.50479984     8.86896992    -0.00005358
   90    23  2    0.00         13.50479984    10.60649967    -0.00133312
   91    23  2    0.00         12.00010014     8.00022030     0.00055358
   92    23  2    0.00         15.00949955     8.00022030     0.00061881
   93    24  1    0.00         17.50449944     8.86865044    -0.00000575
   94    24  2    0.00         17.50510025    10.60610008     0.00068723
   95    24  2    0.00         15.99950027     8.00039005    -0.00012268
   96    24  2    0.00         19.00889969     7.99940014    -0.00058178
   97    25  1    0.00         21.50449944     8.86870003    -0.00003769
   98    25  2    0.00         21.50489998    10.60620022    -0.00002952
   99    25  2    0.00         19.99959946     8.00026989    -0.00049301
  100    25  2    0.00         23.00900078     7.99961996     0.00040947
  101    26  1    0.00         25.50480080     8.86878014     0.00019836
  102    26  2    0.00         25.50499916    10.60630035    -0.00028889
  103    26  2    0.00         24.00000000     8.00024033     0.00014873
  104    26  2    0.00         27.00939941     7.99982023     0.00073524
  105    27  1    0.00         29.50449944     8.86884022    -0.00001374
  106    27  2    0.00         29.50410080    10.60630035    -0.00021428
  107    27  2    0.00         28.00009918     7.99967003    -0.00053138
  108    27  2    0.00         31.00950050     8.00051022     0.00070446
  109    28  1    0.00         33.50439835     8.86884975     0.00027475
  110    28  2    0.00         33.50419998    10.60630035     0.00066203
  111    28  2    0.00         31.99979973     7.99996996     0.00007978
  112    28  2    0.00         35.00920105     8.00022030     0.00008244
  113    29  1    0.00         37.50490189     8.86876011    -0.00007711
  114    29  2    0.00         37.50479889    10.60630035     0.00072801
  115    29  2    0.00         36.00019836     7.99996996    -0.00018134
  116    29  2    0.00         39.00960159     8.00004005    -0.00077799
  117    30  1    0.00         41.50460052     8.86890030     0.00018192
  118    30  2    0.00         41.50439835    10.60639954     0.00062440
  119    30  2    0.00         40.00000000     7.99998999     0.00042513
  120    30  2    0.00         43.00939941     8.00032043    -0.00050377
  121    31  1    0.00         45.50479889     8.86868000    -0.00010245
  122    31  2    0.00         45.50450134    10.60620022    -0.00047628
  123    31  2    0.00         44.00019836     7.99969006    -0.00004153
  124    31  2    0.00         47.00960159     8.00018024     0.00021044
  125    32  1    0.00         49.50460052     8.86880970     0.00009464
  126    32  2    0.00         49.50500107    10.60630035    -0.00002763
  127    32  2    0.00         47.99959946     8.00043011    -0.00006977
  128    32  2    0.00         51.00899887     7.99969006     0.00038132
  129    33  1    0.00         53.50460052     8.86888027     0.00015890
  130    33  2    0.00         53.50500107    10.60639954     0.00046455
  131    33  2    0.00         51.99969864     8.00047970     0.00099467
  132    33  2    0.00         55.00910187     7.99978018    -0.00098254
  133    34  1    0.00         13.50469971    12.86890030    -0.00019460
  134    34  2    0.00         13.50450039    14.60639954     0.00056557
  135    34  2    0.00         12.00010014    12.00000000    -0.00015899
  136    34  2    0.00         15.00949955    12.00030041    -0.00099037
  137    35  1    0.00         17.50469971    12.86890030    -0.00003617
  138    35  2    0.00         17.50449944    14.60639954     0.00089870
  139    35  2    0.00         16.00020027    11.99989986    -0.00005774
  140    35  2    0.00         19.00959969    12.00030041    -0.00094947
  141    36  1    0.00         21.50489998    12.86870003    -0.00017061
  142    36  2    0.00         21.50440025    14.60620022    -0.00114720
  143    36  2    0.00         20.00049973    11.99950027    -0.00039084
  144    36  2    0.00         23.00989914    12.00039959     0.00102620
  145    37  1    0.00         25.50449944    12.86870003     0.00024441
  146    37  2    0.00         25.50449944    14.60620022     0.00032787
  147    37  2    0.00         23.99979973    12.00000000     0.00044600
  148    37  2    0.00         27.00919914    12.00000000    -0.00004065
  149    38  1    0.00         29.50449944    12.86859989    -0.00002874
  150    38  2    0.00         29.50419998    14.60610008    -0.00024651
  151    38  2    0.00         28.00000000    11.99950027     0.00016583
  152    38  2    0.00         31.00939941    12.00010014    -0.00000554
  153    39  1    0.00         33.50490189    12.86890030    -0.00002089
  154    39  2    0.00         33.50500107    14.60639954     0.00065037
  155    39  2    0.00         32.00019836    12.00010014    -0.00076966
  156    39  2    0.00         35.00960159    12.00010014     0.00005662
  157    40  1    0.00         37.50469971    12.86859989     0.00013624
  158    40  2    0.00         37.50500107    14.60610008     0.00017105
  159    40  2    0.00         35.99990082    12.00020027     0.00037720
  160    40  2    0.00         39.00930023    11.99960041    -0.00013955
  161    41  1    0.00         41.50490189    12.86870003     0.00029640
  162    41  2    0.00         41.50469971    14.60620022     0.00072315
  163    41  2    0.00         40.00030136    11.99979973    -0.00042424
  164    41  2    0.00         43.00970078    12.00010014     0.00059027
  165    42  1    0.00         45.50479889    12.86870003     0.00017199
  166    42  2    0.00         45.50439835    14.60620022     0.00029147
  167    42  2    0.00         44.00030136    11.99960041     0.00058330
  168    42  2    0.00         47.00970078    12.00030041    -0.00035879
  169    43  1    0.00         49.50479889    12.86870003    -0.00002696
  170    43  2    0.00         49.50479889    14.60620022    -0.00061180
  171    43  2    0.00         48.00000000    12.00000000    -0.00016660
  172    43  2    0.00         51.00939941    11.99979973     0.00069751
  173    44  1    0.00         53.50460052    12.86890030     0.00020152
  174    44  2    0.00         53.50479889    14.60639954     0.00051483
  175    44  2    0.00         51.99980164    12.00030041    -0.00045930
  176    44  2    0.00         55.00920105    11.99989986     0.00054903
  177    45  1    0.00         13.50489998    16.86879921    -0.00010749
  178    45  2    0.00         13.50489998    18.60630035     0.00010138
  179    45  2    0.00         12.00020027    16.00000000     0.00059951
  180    45  2    0.00         15.00959969    16.00009918    -0.00102337
  181    46  1    0.00         17.50469971    16.86879921    -0.00007763
  182    46  2    0.00         17.50469971    18.60630035     0.00009269
  183    46  2    0.00         16.00000000    16.00009918     0.00009824
  184    46  2    0.00         19.00939941    16.00000000    -0.00042382
  185    47  1    0.00         21.50460052    16.86890030    -0.00003714
  186    47  2    0.00         21.50429916    18.60639954     0.00001625
  187    47  2    0.00         20.00000000    15.99989986    -0.00062817
  188    47  2    0.00         23.00939941    16.00040054     0.00050051
  189    48  1    0.00         25.50469971    16.86860085     0.00011793
  190    48  2    0.00         25.50519943    18.60610008     0.00004503
  191    48  2    0.00         23.99979973    16.00020027    -0.00025606
  192    48  2    0.00         27.00919914    15.99940014     0.00056482
  193    49  1    0.00         29.50480080    16.86870003     0.00000252
  194    49  2    0.00         29.50480080    18.60619926     0.00033922
  195    49  2    0.00         28.00009918    15.99989986    -0.00059500
  196    49  2    0.00         31.00950050    16.00000000     0.00026335
  197    50  1    0.00         33.50450134    16.86910057    -0.00010121
  198    50  2    0.00         33.50360107    18.60659981    -0.00036108
  199    50  2    0.00         32.00030136    15.99950027    -0.00067092
  200    50  2    0.00         35.00970078    16.00119972     0.00072838
  201    51  1    0.00         37.50469971    16.86879921    -0.00000772
  202    51  2    0.00         37.50439835    18.60630035    -0.00038926
  203    51  2    0.00         36.00019836    15.99979973    -0.00015117
  204    51  2    0.00         39.00960159    16.00029945     0.00051728
  205    52  1    0.00         41.50469971    16.86879921     0.00007951
  206    52  2    0.00         41.50479889    18.60630035     0.00048715
  207    52  2    0.00         40.00000000    16.00020027    -0.00057736
  208    52  2    0.00         43.00939941    16.00000000     0.00032876
  209    53  1    0.00         45.50490189    16.86870003    -0.00006035
  210    53  2    0.00         45.50510025    18.60619926     0.00010597
  211    53  2    0.00         44.00009918    16.00009918     0.00038025
  212    53  2    0.00         47.00949860    15.99979973    -0.00066727
  213    54  1    0.00         49.50469971    16.86910057     0.00008269
  214    54  2    0.00         49.50500107    18.60659981    -0.00042988
  215    54  2    0.00         47.99990082    16.00049973     0.00011453
  216    54  2    0.00         51.00930023    16.00009918     0.00056340
  217    55  1    0.00         53.50479889    16.86860085    -0.00010256
  218    55  2    0.00         53.50479889    18.60610008    -0.00019663
  219    55  2    0.00         52.00009918    15.99979973    -0.00010671
  220    55  2    0.00         55.00949860    15.99979973    -0.00000433
  221    56  1    0.00         13.50459957    20.86910057    -0.00004013
  222    56  2    0.00         13.50469971    22.60659981    -0.00014876
  223    56  2    0.00         11.99989986    20.00049973    -0.00055257
  224    56  2    0.00         15.00930023    20.00029945     0.00058094
  225    57  1    0.00         17.50480080    20.86899948    -0.00012239
  226    57  2    0.00         17.50449944    22.60650063    -0.00023385
  227    57  2    0.00         16.00020027    20.00000000    -0.00031930
  228    57  2    0.00         19.00959969    20.00049973     0.00018599
  229    58  1    0.00         21.50480080    20.86879921    -0.00013329
  230    58  2    0.00         21.50469971    22.60630035    -0.00001123
  231    58  2    0.00         20.00020027    20.00000000    -0.00018869
  232    58  2    0.00         23.00959969    20.00020027    -0.00019994
  233    59  1    0.00         25.50469971    20.86910057     0.00035824
  234    59  2    0.00         25.50429916    22.60659981     0.00070098
  235    59  2    0.00         24.00009918    20.00000000     0.00084016
  236    59  2    0.00         27.00950050    20.00060081    -0.00046642
  237    60  1    0.00         29.50480080    20.86860085     0.00001765
  238    60  2    0.00         29.50429916    22.60610008     0.00053927
  239    60  2    0.00         28.00029945    19.99950027     0.00005470
  240    60  2    0.00         31.00970078    20.00029945    -0.00054101
  241    61  1    0.00         33.50460052    20.86890030    -0.00003069
  242    61  2    0.00         33.50469971    22.60639954    -0.00028818
  243    61  2    0.00         31.99990082    20.00020027     0.00021413
  244    61  2    0.00         35.00930023    20.00009918    -0.00001801
  245    62  1    0.00         37.50469971    20.86870003    -0.00004474
  246    62  2    0.00         37.50510025    22.60619926    -0.00052065
  247    62  2    0.00         35.99990082    20.00029945    -0.00004680
  248    62  2    0.00         39.00930023    19.99970055     0.00043322
  249    63  1    0.00         41.50469971    20.86860085    -0.00014474
  250    63  2    0.00         41.50510025    22.60610008    -0.00000432
  251    63  2    0.00         39.99980164    20.00020027     0.00012513
  252    63  2    0.00         43.00920105    19.99950027    -0.00055503
  253    64  1    0.00         45.50460052    20.86879921     0.00008843
  254    64  2    0.00         45.50479889    22.60630035     0.00058445
  255    64  2    0.00         43.99980164    20.00020027    -0.00021921
  256    64  2    0.00         47.00920105    19.99979973    -0.00009996
  257    65  1    0.00         49.50479889    20.86899948     0.00021898
  258    65  2    0.00         49.50469971    22.60650063    -0.00020643
  259    65  2    0.00         48.00019836    20.00009918    -0.00003399
  260    65  2    0.00         51.00960159    20.00040054     0.00089735
  261    66  1    0.00         53.50450134    20.86899948     0.00000500
  262    66  2    0.00         53.50519943    22.60650063     0.00034394
  263    66  2    0.00         51.99940109    20.00090027     0.00030780
  264    66  2    0.00         55.00880051    19.99959946    -0.00063673
  265    67  1    0.00         13.50489998    24.86870003     0.00015573
  266    67  2    0.00         13.50529957    26.60619926     0.00035644
  267    67  2    0.00         11.99989986    24.00040054    -0.00030181
  268    67  2    0.00         15.00930023    23.99959946     0.00041256
  269    68  1    0.00         17.50460052    24.86890030    -0.00014436
  270    68  2    0.00         17.50399971    26.60639954    -0.00017273
  271    68  2    0.00         16.00020027    23.99959946    -0.00020450
  272    68  2    0.00         19.00959969    24.00060081    -0.00005585
  273    69  1    0.00         21.50460052    24.86870003    -0.00016518
  274    69  2    0.00         21.50419998    26.60619926     0.00004827
  275    69  2    0.00         20.00020027    23.99950027    -0.00030755
  276    69  2    0.00         23.00959969    24.00040054    -0.00023626
  277    70  1    0.00         25.50469971    24.86870003     0.00000061
  278    70  2    0.00         25.50519943    26.60619926    -0.00004985
  279    70  2    0.00         23.99979973    24.00029945     0.00018212
  280    70  2    0.00         27.00919914    23.99950027    -0.00013046
  281    71  1    0.00         29.50480080    24.86870003     0.00007911
  282    71  2    0.00         29.50489998    26.60619926    -0.00079965
  283    71  2    0.00         28.00009918    24.00000000     0.00053913
  284    71  2    0.00         31.00950050    23.99990082     0.00049784
  285    72  1    0.00         33.50439835    24.86870003    -0.00009393
  286    72  2    0.00         33.50450134    26.60619926     0.00022284
  287    72  2    0.00         31.99970055    24.00000000    -0.00012289
  288    72  2    0.00         35.00910187    23.99990082    -0.00038175
  289    73  1    0.00         37.50460052    24.86870003    -0.00002703
  290    73  2    0.00         37.50439835    26.60619926     0.00054746
  291    73  2    0.00         36.00000000    23.99979973    -0.00024743
  292    73  2    0.00         39.00939941    24.00009918    -0.00038113
  293    74  1    0.00         41.50469971    24.86890030     0.00010672
  294    74  2    0.00         41.50460052    26.60639954     0.00001421
  295    74  2    0.00         40.00009918    24.00009918    -0.00053660
  296    74  2    0.00         43.00949860    24.00020027     0.00084255
  297    75  1    0.00         45.50450134    24.86890030     0.00006092
  298    75  2    0.00         45.50439835    26.60639954     0.00023414
  299    75  2    0.00         43.99990082    24.00000000    -0.00041727
  300    75  2    0.00         47.00930023    24.00020027     0.00036589
  301    76  1    0.00         49.50490189    24.86849976    -0.00004756
  302    76  2    0.00         49.50500107    26.60600090     0.00023338
  303    76  2    0.00         48.00009918    23.99990082    -0.00001809
  304    76  2    0.00         51.00949860    23.99970055    -0.00035798
  305    77  1    0.00         53.50460052    24.86890030     0.00009640
  306    77  2    0.00         53.50519943    26.60639954     0.00062562
  307    77  2    0.00         51.99969864    24.00060081     0.00013839
  308    77  2    0.00         55.00910187    23.99959946    -0.00047482
  309    78  1    0.00         13.50469971    28.86899948    -0.00026675
  310    78  2    0.00         13.50459957    30.60650063    -0.00036000
  311    78  2    0.00         12.00010014    28.00009918     0.00023542
  312    78  2    0.00         15.00949955    28.00040054    -0.00067567
  313    79  1    0.00         17.50480080    28.86899948    -0.00003222
  314    79  2    0.00         17.50539970    30.60650063     0.00014003
  315    79  2    0.00         15.99979973    28.00079918    -0.00004815
  316    79  2    0.00         19.00919914    27.99979973    -0.00018856
  317    80  1    0.00         21.50469971    28.86879921     0.00016054
  318    80  2    0.00         21.50489998    30.60630035     0.00020714
  319    80  2    0.00         19.99990082    28.00020027     0.00003308
  320    80  2    0.00         23.00930023    27.99990082     0.00024140
  321    81  1    0.00         25.50480080    28.86870003    -0.00009927
  322    81  2    0.00         25.50469971    30.60619926    -0.00011745
  323    81  2    0.00         24.00020027    27.99979973    -0.00006821
  324    81  2    0.00         27.00959969    28.00000000    -0.00011215
  325    82  1    0.00         29.50469971    28.86879921     0.00004002
  326    82  2    0.00         29.50469971    30.60630035     0.00071138
  327    82  2    0.00         28.00000000    28.00000000    -0.00033651
  328    82  2    0.00         31.00939941    28.00000000    -0.00025481
  329    83  1    0.00         33.50469971    28.86870003     0.00016979
  330    83  2    0.00         33.50419998    30.60619926    -0.00047144
  331    83  2    0.00         32.00019836    27.99959946     0.00033453
  332    83  2    0.00         35.00960159    28.00040054     0.00064628
  333    84  1    0.00         37.50479889    28.86870003    -0.00008707
  334    84  2    0.00         37.50469971    30.60619926     0.00034562
  335    84  2    0.00         36.00009918    27.99990082    -0.00096864
  336    84  2    0.00         39.00949860    28.00000000     0.00036183
  337    85  1    0.00         41.50469971    28.86860085     0.00014985
  338    85  2    0.00         41.50460052    30.60610008     0.00009553
  339    85  2    0.00         40.00009918    27.99970055    -0.00016900
  340    85  2    0.00         43.00949860    28.00000000     0.00052301
  341    86  1    0.00         45.50479889    28.86860085     0.00000995
  342    86  2    0.00         45.50469971    30.60610008    -0.00082086
  343    86  2    0.00         44.00019836    27.99970055     0.00079974
  344    86  2    0.00         47.00960159    28.00000000     0.00005098
  345    87  1    0.00         49.50469971    28.86879921     0.00028882
  346    87  2    0.00         49.50529861    30.60630035     0.00032005
  347    87  2    0.00         47.99959946    28.00070000    -0.00006697
  348    87  2    0.00         51.00899887    27.99950027     0.00061339
  349    88  1    0.00         53.50460052    28.86879921     0.00007462
  350    88  2    0.00         53.50400162    30.60630035     0.00030686
  351    88  2    0.00         52.00009918    27.99950027    -0.00105528
  352    88  2    0.00         55.00949860    28.00049973     0.00097228
  353    89  1    0.00         13.50459957    32.86859894    -0.00001200
  354    89  2    0.00         13.50399971    34.60609818     0.00044362
  355    89  2    0.00         12.00010014    31.99930000    -0.00090731
  356    89  2    0.00         15.00949955    32.00030136     0.00042769
  357    90  1    0.00         17.50480080    32.86859894    -0.00015447
  358    90  2    0.00         17.50419998    34.60609818     0.00061311
  359    90  2    0.00         16.00040054    31.99930000    -0.00060737
  360    90  2    0.00         19.00979996    32.00040054    -0.00046915
  361    91  1    0.00         21.50449944    32.86849976     0.00008403
  362    91  2    0.00         21.50489998    34.60599899    -0.00017755
  363    91  2    0.00         19.99970055    32.00000000     0.00033554
  364    91  2    0.00         23.00909996    31.99950027     0.00009410
  365    92  1    0.00         25.50460052    32.86869812     0.00005256
  366    92  2    0.00         25.50410080    34.60620117    -0.00056118
  367    92  2    0.00         24.00020027    31.99950027     0.00044093
  368    92  2    0.00         27.00959969    32.00040054     0.00027794
  369    93  1    0.00         29.50460052    32.86859894    -0.00026930
  370    93  2    0.00         29.50499916    34.60609818    -0.00082327
  371    93  2    0.00         27.99970055    32.00019836     0.00067568
  372    93  2    0.00         31.00909996    31.99959946    -0.00066030
  373    94  1    0.00         33.50439835    32.86840057    -0.00003903
  374    94  2    0.00         33.50519943    34.60589981     0.00110102
  375    94  2    0.00         31.99939919    32.00030136    -0.00018769
  376    94  2    0.00         35.00880051    31.99909973    -0.00103043
  377    95  1    0.00         37.50460052    32.86880112     0.00005325
  378    95  2    0.00         37.50410080    34.60630035     0.00072412
  379    95  2    0.00         36.00019836    31.99959946    -0.00049015
  380    95  2    0.00         39.00960159    32.00049973    -0.00007423
  381    96  1    0.00         41.50460052    32.86859894     0.00003830
  382    96  2    0.00         41.50469971    34.60609818    -0.00031014
  383    96  2    0.00         39.99990082    31.99990082     0.00050032
  384    96  2    0.00         43.00930023    31.99970055    -0.00007528
  385    97  1    0.00         45.50479889    32.86880112     0.00007554
  386    97  2    0.00         45.50450134    34.60630035    -0.00016756
  387    97  2    0.00         44.00030136    31.99970055     0.00017592
  388    97  2    0.00         47.00970078    32.00040054     0.00021828
  389    98  1    0.00         49.50490189    32.86859894     0.00007931
  390    98  2    0.00         49.50510025    34.60609818     0.00009548
  391    98  2    0.00         48.00009918    32.00009918     0.00036689
  392    98  2    0.00         51.00949860    31.99970055    -0.00022444
  393    99  1    0.00         53.50439835    32.86859894    -0.00004715
  394    99  2    0.00         53.50490189    34.60609818    -0.00003450
  395    99  2    0.00         51.99950027    32.00019836    -0.00007949
  396    99  2    0.00         55.00889969    31.99950027    -0.00002748
  397   100  1    0.00         13.50459957    36.86859894     0.00004325
  398   100  2    0.00         13.50409985    38.60609818    -0.00025601
  399   100  2    0.00         12.00010014    35.99950027     0.00083864
  400   100  2    0.00         15.00949955    36.00030136    -0.00045288
  401   101  1    0.00         17.50489998    36.86849976    -0.00020576
  402   101  2    0.00         17.50480080    38.60599899    -0.00058219
  403   101  2    0.00         16.00020027    35.99969864    -0.00013876
  404   101  2    0.00         19.00959969    35.99980164     0.00010369