LAMMPS (30 Apr 2019)
  using 1 OpenMP thread(s) per MPI task
Reading data file ...
  orthogonal box = (0 0 0) to (168 48 48)
  5 by 2 by 2 MPI processor grid
  reading atoms ...
  6376 atoms
  scanning bonds ...
  1 = max bonds/atom
  scanning angles ...
  1 = max angles/atom
  reading bonds ...
  39 bonds
  reading angles ...
  38 angles
Finding 1-2 1-3 1-4 neighbors ...
  special bond factors lj:   0          0          0         
  special bond factors coul: 0          0          0         
  2 = max # of 1-2 neighbors
  2 = max # of 1-3 neighbors
  4 = max # of 1-4 neighbors
  6 = max # of special neighbors
  special bonds CPU = 0.00137806 secs
  read_data CPU = 0.079643 secs
6336 atoms in group hp1
40 atoms in group ext
WARNING: 1 of 3601 force values in table are inconsistent with -dE/dr.
  Should only be flagged at inflection points (../pair_table.cpp:482)
WARNING: 391 of 3601 force values in table are inconsistent with -dE/dr.
  Should only be flagged at inflection points (../pair_table.cpp:482)
WARNING: 1 of 3601 force values in table are inconsistent with -dE/dr.
  Should only be flagged at inflection points (../pair_table.cpp:482)
WARNING: 1 of 3601 force values in table are inconsistent with -dE/dr.
  Should only be flagged at inflection points (../pair_table.cpp:482)
1584 rigid bodies with 6336 atoms
Neighbor list info ...
  update every 1 steps, delay 2 steps, check yes
  max neighbors/atom: 2000, page size: 100000
  master list distance cutoff = 20
  ghost atom cutoff = 20
  binsize = 10, bins = 17 5 5
  1 neighbor lists, perpetual/occasional/extra = 1 0 0
  (1) pair table, perpetual
      attributes: half, newton on
      pair build: half/bin/newton
      stencil: half/bin/3d/newton
      bin: standard
Setting up Verlet run ...
  Unit style    : real
  Current step  : 0
  Time step     : 0.5
Per MPI rank memory allocation (min/avg/max) = 0.6874 | 7.708 | 10.17 Mbytes
Step Temp PotEng TotEng Press Volume Enthalpy c_1 Density 
       0    1.0103651     6.661983    16.320526    58.861972       387072    348.59919 2.9807382e-44   0.15972528 
    1000    7.5016169   -6.2621648    65.449225   -20.533709       387072   -50.464551   -13.624659   0.15972528 
    2000    16.595441    11.236276    169.87969    28.601791       387072    331.33818   -2.5399396   0.15972528 
    3000    52.565038    -37.60302    464.89024    119.86719       387072    1141.5463   -56.240502   0.15972528 
    4000    121.59228   -31.890407    1130.4659    261.90922       387072    2608.9561   -54.289443   0.15972528 
Loop time of 5.76856 on 20 procs for 4000 steps with 6376 atoms

Performance: 29.955 ns/day, 0.801 hours/ns, 693.414 timesteps/s
96.7% CPU use with 20 MPI tasks x 1 OpenMP threads

MPI task timing breakdown:
Section |  min time  |  avg time  |  max time  |%varavg| %total
---------------------------------------------------------------
Pair    | 0.00035143 | 0.43552    | 1.2072     |  80.8 |  7.55
Bond    | 0.0004406  | 0.0015262  | 0.0044091  |   3.3 |  0.03
Neigh   | 0.94802    | 0.96379    | 0.97813    |   1.3 | 16.71
Comm    | 0.063039   | 0.44441    | 0.94399    |  48.4 |  7.70
Output  | 0.0031741  | 0.003179   | 0.003237   |   0.0 |  0.06
Modify  | 2.5367     | 3.6145     | 4.4002     |  42.9 | 62.66
Other   |            | 0.3056     |            |       |  5.30

Nlocal:    318.8 ave 803 max 0 min
Histogram: 12 0 0 0 0 0 0 0 0 8
Nghost:    4790.85 ave 9811 max 63 min
Histogram: 4 0 8 0 0 0 0 0 0 8
Neighs:    8070.2 ave 20590 max 0 min
Histogram: 12 0 0 0 0 0 0 0 0 8

Total # of neighbors = 161404
Ave neighs/atom = 25.3143
Ave special neighs/atom = 0.0357591
Neighbor list builds = 83
Dangerous builds = 0
System init for write_restart ...
Total wall time: 0:00:05
