ITEM: TIMESTEP
0
ITEM: NUMBER OF ATOMS
6376
ITEM: BOX BOUNDS pp pp pp
0.0000000000000000e+00 1.6800000000000000e+02
0.0000000000000000e+00 4.8000000000000000e+01
0.0000000000000000e+00 4.8000000000000000e+01
ITEM: ATOMS id type xu yu zu 
1 1 13.5046 0.868698 0.00010884 
2 2 13.5045 2.6062 0.00058862 
4 2 15.0093 2.175e-05 9.42e-06 
6 2 17.5051 2.60623 2.117e-05 
7 2 16.0002 0.00013048 0.00013818 
9 1 21.5046 0.868752 7.775e-05 
10 2 21.5041 2.60625 0.00099369 
45 1 13.5048 4.86869 0.0001678 
46 2 13.5044 6.60619 0.00042077 
47 2 12.0002 3.99965 5.619e-05 
48 2 15.0096 4.00023 2.643e-05 
51 2 15.9996 4.00045 0.00043546 
52 2 19.009 3.99974 0.00038909 
54 2 21.5047 6.60618 0.00071359 
91 2 12.0001 8.00022 0.00055358 
92 2 15.0095 8.00022 0.00061881 
94 2 17.5051 10.6061 0.00068723 
529 1 13.5047 0.868662 4.00001 
530 2 13.5048 2.60616 4.00047 
531 2 11.9999 5.93e-06 4.00058 
533 1 17.5049 0.868727 4.00015 
534 2 17.505 2.60623 4.00063 
535 2 16.0001 7.981e-05 4.0005 
537 1 21.5046 0.868594 4 
538 2 21.5047 2.60609 4.00023 
573 1 13.5046 4.86862 4.00018 
574 2 13.505 6.60612 4.00015 
575 2 11.9996 4.00028 4.00054 
576 2 15.009 3.99946 3.99985 
577 1 17.5046 4.86857 3.99978 
578 2 17.5045 6.60607 3.99972 
579 2 16 3.99965 4.00021 
580 2 19.0094 3.99998 3.9994 
581 1 21.5047 4.86884 3.99978 
582 2 21.5048 6.60634 4.00108 
583 2 20 4.00016 3.9993 
617 1 13.5046 8.8687 4.00017 
618 2 13.5042 10.6062 4.00064 
619 2 12 7.99965 4.00004 
620 2 15.0094 8.00025 3.99982 
621 1 17.5046 8.86894 3.9999 
622 2 17.5045 10.6064 3.99873 
623 2 16 8.00004 4.00019 
624 2 19.0094 8.00034 4.00078 
625 1 21.5048 8.86862 4.00015 
626 2 21.5054 10.6061 4.00044 
627 2 19.9998 8.00042 4.00018 
663 2 12.0002 11.9999 3.99998 
668 2 19.0091 11.9993 3.99935 
1057 1 13.5048 0.868515 8.00007 
1058 2 13.5045 2.60602 8.00052 
1061 1 17.5048 0.868825 8.00026 
1062 2 17.505 2.60633 8.00011 
1063 2 16 0.00023913 8.00031 
1065 1 21.5045 0.868699 7.99978 
1066 2 21.5044 2.6062 7.99988 
1101 1 13.5047 4.86876 7.99982 
1102 2 13.5044 6.60626 8.00038 
1103 2 12.0002 3.99975 7.99928 
1104 2 15.0096 4.00026 7.99981 
1105 1 17.5049 4.86904 8.00011 
1106 2 17.5049 6.60654 7.99959 
1107 2 16.0002 4.00026 8.00043 
1108 2 19.0096 4.00032 8.00032 
1109 1 21.5045 4.86871 7.99998 
1110 2 21.5052 6.60621 8.00016 
1111 2 19.9995 4.0005 7.99968 
1145 1 13.5045 8.86882 7.99999 
1146 2 13.5046 10.6063 8.00011 
1147 2 11.9997 8.00021 8.00032 
1148 2 15.0091 7.99993 7.99954 
1149 1 17.5046 8.86859 8.00016 
1150 2 17.5046 10.6061 8.00023 
1151 2 16 7.99981 7.99888 
1152 2 19.0094 7.99987 8.00135 
1153 1 21.5047 8.86871 7.99983 
1154 2 21.5045 10.6062 7.99978 
1155 2 20 7.99983 8.00024 
1192 2 15.0092 11.9998 7.99983 
1195 2 16.0001 11.9998 8.00012 
1586 2 13.5049 2.6063 11.9996 
1590 2 17.5043 2.60642 11.9991 
1594 2 21.5045 2.6064 11.9997 
1629 1 13.5049 4.86892 11.9999 
1632 2 15.0095 4.00005 11.999 
1635 2 16.0001 3.99992 11.9995 
1636 2 19.0095 4.00003 11.9998 
1638 2 21.5048 6.60616 11.9995 
1639 2 19.9994 4.0003 11.9999 
1673 1 13.5047 8.86871 11.9999 
1676 2 15.0093 7.99974 11.9995 
1680 2 19.0092 7.99941 11.9987 
1682 2 21.5046 10.6064 11.9999 
1720 2 15.0094 11.9999 11.9999 
14 2 25.5046 2.60652 0.00018317 
15 2 24.0001 0.00020103 1.087e-05 
17 1 29.5047 0.868719 9.032e-05 
18 2 29.5048 2.60622 0.0004289 
19 2 27.9999 0.00010196 0.00042852 
22 2 33.505 2.60622 0.00027221 
23 2 31.9997 0.0003225 0.0001107 
58 2 25.5049 6.60622 0.00023047 
62 2 29.5051 6.60634 3.421e-05 
63 2 28 4.0003 0.00034286 
100 2 23.009 7.99962 0.00040947 
101 1 25.5048 8.86878 0.00019836 
103 2 24 8.00024 0.00014873 
104 2 27.0094 7.99982 0.00073524 
108 2 31.0095 8.00051 0.00070446 
109 1 33.5044 8.86885 0.00027475 
110 2 33.5042 10.6063 0.00066203 
111 2 31.9998 7.99997 7.978e-05 
151 2 28 11.9995 0.00016583 
541 1 25.5046 0.868768 4.00009 
542 2 25.5045 2.60627 4.00037 
544 2 27.0094 0.00012868 4.00033 
545 1 29.5047 0.868494 3.99999 
546 2 29.5039 2.60599 4.00122 
548 2 31.0099 0.0004911 3.99965 
549 1 33.5048 0.868535 3.99994 
550 2 33.5049 2.60603 3.99906 
584 2 23.0094 4.00001 3.99895 
585 1 25.5049 4.86894 4.00006 
586 2 25.5054 6.60644 3.9997 
587 2 23.9999 4.00068 4.00021 
588 2 27.0093 3.9997 4.00027 
589 1 29.5046 4.86854 3.99998 
590 2 29.5046 6.60604 3.99987 
591 2 27.9999 3.99978 3.99996 
592 2 31.0093 3.9998 4.00012 
593 1 33.5048 4.86883 4.00011 
594 2 33.5046 6.60633 4.00048 
595 2 32.0002 3.99988 3.99922 
628 2 23.0092 7.99932 3.99985 
629 1 25.5045 8.86888 3.99996 
630 2 25.5045 10.6064 3.99883 
631 2 23.9998 8.00014 4.00112 
632 2 27.0092 8.00012 3.99992 
633 1 29.5046 8.86874 4.00027 
634 2 29.5045 10.6062 3.99966 
635 2 28 7.99986 4.0007 
636 2 31.0094 8.00011 4.00047 
637 1 33.5047 8.86883 4 
638 2 33.5044 10.6063 3.99973 
639 2 32.0001 7.9999 4.00059 
676 2 27.0094 11.9995 4.00106 
679 2 28.0002 11.9999 3.99909 
1068 2 23.0093 6.49e-05 7.99989 
1069 1 25.5047 0.868743 7.99962 
1070 2 25.5049 2.60624 8.00038 
1071 2 23.9999 0.00014803 8.00013 
1073 1 29.5049 0.868867 8.00009 
1074 2 29.5046 2.60637 8.00037 
1076 2 31.0097 0.0003606 7.99981 
1077 1 33.5049 0.868631 7.9999 
1078 2 33.5046 2.60613 8.00013 
1112 2 23.0089 3.99943 8.0001 
1113 1 25.5046 4.86871 8.00005 
1114 2 25.5041 6.60621 7.99957 
1115 2 24.0002 3.99954 8.0006 
1116 2 27.0096 4.00038 7.99998 
1117 1 29.5046 4.86858 7.99992 
1118 2 29.505 6.60608 8.00076 
1119 2 27.9998 4.00011 7.99969 
1120 2 31.0092 3.99955 7.9993 
1121 1 33.5048 4.86868 7.99998 
1122 2 33.5047 6.60618 8.00059 
1123 2 32.0001 3.99986 7.9996 
1156 2 23.0094 8.0001 7.99948 
1157 1 25.5048 8.86893 7.99991 
1158 2 25.5052 10.6064 7.99891 
1159 2 23.9999 8.00051 8.00044 
1160 2 27.0093 7.99985 8.00039 
1161 1 29.5047 8.86861 8.00016 
1162 2 29.5045 10.6061 8.00089 
1163 2 28 7.99969 7.99972 
1164 2 31.0094 8.00003 7.99985 
1165 1 33.5046 8.86873 8.00008 
1166 2 33.5045 10.6062 8.0003 
1167 2 31.9999 7.99992 7.99915 
1200 2 23.0092 11.9996 8.0006 
1204 2 27.0095 11.9999 8.00064 
1208 2 31.0092 11.9997 8.00075 
1211 2 32.0002 11.9998 7.99964 
1597 1 25.5045 0.868529 11.9999 
1602 2 29.5049 2.60613 11.9997 
1607 2 31.9997 0.00056056 11.9999 
1642 2 25.5041 6.60612 11.9996 
1645 1 29.5046 4.86882 11.9998 
1647 2 27.9998 4.00024 11.9997 
1648 2 31.0092 3.99991 11.9997 
1649 1 33.5049 4.86875 11.9999 
1650 2 33.5059 6.60625 11.9995 
1685 1 25.5049 8.86869 11.9999 
1686 2 25.5051 10.6062 11.9995 
1687 2 24.0002 8.00005 11.9994 
1689 1 29.5048 8.86902 11.9999 
1692 2 31.0096 8.00049 11.9995 
1693 1 33.5048 8.86873 11.9999 
1694 2 33.5049 10.6062 11.9997 
1732 2 27.009 11.9997 11.9996 
1735 2 28.0003 11.9998 11.9998 
134 2 13.5045 14.6064 0.00056557 
138 2 17.5045 14.6064 0.0008987 
178 2 13.5049 18.6063 0.00010138 
179 2 12.0002 16 0.00059951 
182 2 17.5047 18.6063 9.269e-05 
183 2 16 16.0001 9.824e-05 
186 2 21.5043 18.6064 1.625e-05 
224 2 15.0093 20.0003 0.00058094 
228 2 19.0096 20.0005 0.00018599 
268 2 15.0093 23.9996 0.00041256 
661 1 13.5047 12.8689 4.00012 
662 2 13.5044 14.6064 4.00014 
664 2 15.0096 12.0004 4.00025 
665 1 17.5047 12.8687 4.00005 
666 2 17.5054 14.6062 4.00008 
667 2 15.9997 12.0006 4.00071 
669 1 21.5049 12.8689 4 
670 2 21.505 14.6064 3.99996 
671 2 20.0002 12.0002 4.00066 
705 1 13.5047 16.8687 3.99983 
706 2 13.5047 18.6062 4.00051 
707 2 12 16 3.99876 
708 2 15.0094 16 4.00021 
709 1 17.5046 16.8688 3.99995 
710 2 17.5043 18.6063 4.00055 
711 2 16.0001 15.9997 3.9997 
712 2 19.0095 16.0003 3.99959 
713 1 21.5049 16.8687 3.9999 
714 2 21.5046 18.6062 3.99956 
715 2 20.0003 15.9997 4.00078 
749 1 13.5047 20.8686 3.99993 
750 2 13.5044 22.6061 3.99947 
751 2 12.0002 19.9995 3.99982 
752 2 15.0096 20.0002 4.0005 
753 1 17.5046 20.8687 3.99979 
754 2 17.5054 22.6062 4.00036 
755 2 15.9995 20.0006 3.99956 
756 2 19.0089 19.9992 3.99943 
757 1 21.5047 20.8686 3.99998 
758 2 21.5054 22.6061 4.00108 
759 2 19.9996 20.0005 3.9991 
795 2 11.9998 23.9999 4.00062 
800 2 19.0092 23.9998 4.00004 
803 2 20.0001 23.9998 4.00031 
1189 1 13.5046 12.8687 8.00013 
1190 2 13.5047 14.6062 8.0004 
1191 2 11.9998 12 8.00016 
1193 1 17.5047 12.8687 8.00014 
1194 2 17.5045 14.6062 7.99978 
1196 2 19.0095 12.0001 8.00051 
1197 1 21.5046 12.8686 8.00013 
1198 2 21.505 14.6061 8.00058 
1199 2 19.9998 12.0001 7.99921 
1233 1 13.5045 16.8687 8.00014 
1234 2 13.5042 18.6062 8.00021 
1235 2 11.9999 15.9997 8.00055 
1236 2 15.0093 16.0002 7.99965 
1237 1 17.5048 16.8685 8.00003 
1238 2 17.5048 18.606 7.99985 
1239 2 16.0001 15.9997 7.99953 
1240 2 19.0095 15.9997 8.00072 
1241 1 21.5048 16.8687 7.99983 
1242 2 21.5045 18.6062 8.00027 
1243 2 20.0002 15.9997 7.99875 
1277 1 13.5046 20.8687 8.00003 
1278 2 13.5045 22.6062 7.99906 
1279 2 12 19.9998 8.00037 
1280 2 15.0094 20 8.00068 
1281 1 17.5046 20.8686 8.00009 
1282 2 17.5053 22.6061 7.99999 
1283 2 15.9996 20.0004 8.00037 
1284 2 19.009 19.9992 7.9999 
1285 1 21.5047 20.8686 7.99998 
1286 2 21.5048 22.6061 7.99983 
1287 2 20 19.9999 8.0002 
1324 2 15.0091 23.9996 8.00002 
1331 2 20 23.9994 7.99934 
1718 2 13.5049 14.6062 11.9992 
1721 1 17.5046 12.8685 11.9998 
1722 2 17.5041 14.606 11.999 
1724 2 19.0096 12.0002 11.9995 
1726 2 21.5044 14.6063 11.9998 
1762 2 13.5042 18.6063 11.9991 
1765 1 17.505 16.8687 11.9999 
1767 2 16.0001 16.0003 11.9995 
1768 2 19.0095 15.9996 11.9996 
1771 2 20.0003 15.9998 11.9993 
1807 2 11.9996 20.0006 11.9989 
1809 1 17.5047 20.8686 11.9999 
1810 2 17.505 22.6061 11.9999 
1811 2 15.9999 20.0001 11.9998 
1813 1 21.5044 20.869 11.9999 
1814 2 21.5046 22.6065 11.9993 
144 2 23.0099 12.0004 0.0010262 
145 1 25.5045 12.8687 0.00024441 
146 2 25.5045 14.6062 0.00032787 
147 2 23.9998 12 0.000446 
154 2 33.505 14.6064 0.00065037 
188 2 23.0094 16.0004 0.00050051 
189 1 25.5047 16.8686 0.00011793 
190 2 25.5052 18.6061 4.503e-05 
192 2 27.0092 15.9994 0.00056482 
193 1 29.5048 16.8687 2.52e-06 
194 2 29.5048 18.6062 0.00033922 
196 2 31.0095 16 0.00026335 
233 1 25.5047 20.8691 0.00035824 
234 2 25.5043 22.6066 0.00070098 
235 2 24.0001 20 0.00084016 
237 1 29.5048 20.8686 1.765e-05 
238 2 29.5043 22.6061 0.00053927 
239 2 28.0003 19.9995 5.47e-05 
243 2 31.9999 20.0002 0.00021413 
284 2 31.0095 23.9999 0.00049784 
672 2 23.0096 12.0001 3.99936 
673 1 25.5048 12.8685 4.00017 
674 2 25.5051 14.606 3.99956 
675 2 24 12 3.99989 
677 1 29.5048 12.8689 3.99994 
678 2 29.5046 14.6064 4.00024 
680 2 31.0096 12.0003 4.00047 
681 1 33.5045 12.8688 4.00015 
682 2 33.5048 14.6063 3.99925 
683 2 31.9996 12.0003 4.00043 
716 2 23.0097 16.0002 3.99935 
717 1 25.5048 16.8688 4.00012 
718 2 25.505 18.6063 4.00089 
719 2 23.9999 16.0002 3.99929 
720 2 27.0093 15.9998 4.00018 
721 1 29.5049 16.8688 3.99992 
722 2 29.5046 18.6063 3.99928 
723 2 28.0003 15.9998 3.99991 
724 2 31.0097 16.0003 4.00055 
725 1 33.5049 16.8687 4.00006 
726 2 33.5045 18.6062 3.99943 
727 2 32.0004 15.9996 4.00054 
760 2 23.009 19.9992 3.99975 
761 1 25.5048 20.8686 3.99984 
762 2 25.5046 22.6061 3.99995 
763 2 24.0001 19.9998 4.00003 
764 2 27.0095 20 3.99955 
765 1 29.5048 20.8688 3.99982 
766 2 29.505 22.6063 4.00076 
767 2 28 20.0002 3.99873 
768 2 31.0094 19.9999 3.99999 
769 1 33.5047 20.8689 3.99996 
770 2 33.5054 22.6064 3.99968 
771 2 31.9996 20.0008 3.99997 
808 2 27.0093 23.9996 4.00044 
811 2 28.0001 23.9998 3.99908 
1201 1 25.5049 12.8688 8.00006 
1202 2 25.5051 14.6063 7.99984 
1203 2 24.0001 12.0002 7.99971 
1205 1 29.5047 12.8688 8.00013 
1206 2 29.5051 14.6063 7.99877 
1207 2 27.9998 12.0003 8.00086 
1209 1 33.5048 12.8688 8.00007 
1210 2 33.5046 14.6063 8.00007 
1244 2 23.0096 16.0002 8.00046 
1245 1 25.5045 16.8687 8.00016 
1246 2 25.5042 18.6062 7.99998 
1247 2 24 15.9997 7.99994 
1248 2 27.0094 16.0002 8.00055 
1249 1 29.5046 16.8689 7.99996 
1250 2 29.5047 18.6064 8.00014 
1251 2 27.9999 16.0002 7.99968 
1252 2 31.0093 16.0001 8.00007 
1253 1 33.5047 16.8689 8.00023 
1254 2 33.5045 18.6064 8.00022 
1255 2 32.0001 16 8.00035 
1288 2 23.0094 19.9998 7.9999 
1289 1 25.5045 20.8687 8.00007 
1290 2 25.5048 22.6062 8.00068 
1291 2 23.9996 20.0003 7.99912 
1292 2 27.009 19.9997 8.0004 
1293 1 29.5047 20.8689 7.99996 
1294 2 29.5045 22.6064 7.99981 
1295 2 28.0001 20 7.99982 
1296 2 31.0095 20.0004 8.00025 
1297 1 33.5046 20.8689 7.99976 
1298 2 33.505 22.6064 7.9991 
1299 2 31.9997 20.0005 8.00011 
1335 2 24.0003 23.9996 7.99941 
1339 2 28.0001 23.9999 7.99954 
1731 2 23.9996 12.0002 11.9998 
1739 2 31.9999 12.0001 11.999 
1773 1 25.5047 16.869 11.9999 
1776 2 27.0094 16.0002 11.9987 
1780 2 31.0094 16.0003 11.9997 
1816 2 23.009 20.0001 11.9997 
1819 2 24 19.9995 11.9998 
1820 2 27.0094 20.0001 11.9992 
1821 1 29.5044 20.8686 11.9998 
1823 2 27.9999 19.9996 11.9998 
1824 2 31.0093 20.0001 11.9992 
1826 2 33.5052 22.6062 11.9987 
1863 2 24 23.9999 11.9996 
1867 2 28.0002 23.9996 11.9991 
1585 1 13.5044 0.868801 12 
1587 2 11.9995 0.00051003 12 
1589 1 17.5047 0.868922 12.0001 
1592 2 19.0096 0.00051798 12.0007 
1593 1 21.5047 0.868897 12 
1630 2 13.505 6.60642 12.0002 
1631 2 12.0001 4.00029 12.0005 
1633 1 17.5048 4.86873 12.0002 
1634 2 17.5047 6.60623 12.0015 
1637 1 21.5043 4.86866 12 
1674 2 13.5049 10.6062 12.0004 
1675 2 11.9999 8.00018 12 
1677 1 17.5047 8.86862 12 
1678 2 17.5053 10.6061 12.0002 
1679 2 15.9998 8.00032 12.0011 
1681 1 21.5048 8.86885 12.0003 
1683 2 20.0002 7.99992 12.0004 
1723 2 16.0002 11.9993 12.0009 
1727 2 20.0001 11.9999 12.0003 
2113 1 13.5046 0.868898 16 
2114 2 13.5048 2.6064 16.0004 
2115 2 11.9999 0.00025726 15.9998 
2116 2 15.0093 3.805e-05 15.9999 
2117 1 17.5048 0.86904 16.0002 
2118 2 17.5042 2.60654 16.001 
2120 2 19.0098 0.00079144 15.9995 
2121 1 21.5046 0.86878 16 
2122 2 21.5042 2.60628 16.0003 
2157 1 13.5047 4.86881 16.0001 
2158 2 13.5045 6.60631 16.0002 
2159 2 12.0001 3.99989 15.9999 
2160 2 15.0095 4.00022 16.0003 
2161 1 17.5048 4.86855 15.9999 
2162 2 17.5046 6.60605 16 
2163 2 16.0003 3.99957 15.9998 
2164 2 19.0097 4.00003 16 
2165 1 21.5047 4.86859 15.9999 
2166 2 21.5053 6.60609 16.0003 
2167 2 19.9997 4.00031 15.9991 
2201 1 13.5048 8.86861 16.0001 
2202 2 13.5052 10.6061 15.9996 
2203 2 11.9998 8.00024 15.9995 
2204 2 15.0092 7.99948 16.001 
2205 1 17.5045 8.86884 16.0001 
2206 2 17.5048 10.6063 16 
2207 2 15.9997 8.00033 16.0013 
2208 2 19.0091 7.99984 15.9989 
2209 1 21.5046 8.86887 15.9999 
2210 2 21.5044 10.6064 15.9999 
2211 2 19.9999 7.99998 15.9991 
2247 2 12.0001 11.9999 16.0011 
2641 1 13.5047 0.86864 19.9998 
2642 2 13.5043 2.60614 19.9989 
2644 2 15.0095 0.00015848 19.9997 
2645 1 17.5046 0.868749 20.0002 
2646 2 17.5045 2.60625 20.0004 
2648 2 19.0094 9.82e-05 20.0002 
2649 1 21.5047 0.868667 19.9998 
2650 2 21.5049 2.60617 20.0001 
2651 2 20 5.7e-05 19.9998 
2685 1 13.5047 4.86876 20.0003 
2686 2 13.5047 6.60626 20.001 
2687 2 12 4.00003 20.0003 
2688 2 15.0094 3.99999 19.9995 
2689 1 17.5046 4.86879 20 
2690 2 17.5043 6.60629 20.0001 
2691 2 16 3.99984 19.9999 
2692 2 19.0094 4.00023 20.0001 
2693 1 21.5046 4.86896 20.0001 
2694 2 21.5044 6.60646 20.0001 
2695 2 20 4.00005 19.9999 
2729 1 13.5049 8.86877 20.0001 
2730 2 13.5054 10.6063 20.0001 
2731 2 11.9999 8.00044 19.9996 
2732 2 15.0093 7.99959 20.0005 
2733 1 17.5046 8.86876 19.9999 
2734 2 17.5047 10.6063 19.9997 
2735 2 15.9998 8.00015 19.9995 
2736 2 19.0092 7.99988 20.0005 
2737 1 21.5047 8.86853 20 
2738 2 21.5048 10.606 20.0003 
2739 2 19.9999 7.99994 19.9996 
2775 2 12.0001 11.9999 19.9991 
2783 2 20 11.9999 19.9992 
3169 1 13.5048 0.86873 23.9998 
3170 2 13.5045 2.60623 23.9998 
3172 2 15.0096 0.00022009 23.9996 
3175 2 16 0.00050768 23.9999 
3176 2 19.0094 0.00015528 23.9999 
3213 1 13.5047 4.86848 23.9999 
3215 2 12 3.99964 23.9997 
3216 2 15.0094 3.99982 23.9993 
3219 2 16.0002 3.99994 23.9992 
3222 2 21.5045 6.60618 23.9997 
3257 1 13.5046 8.86869 23.9999 
3258 2 13.5044 10.6062 23.9994 
3259 2 12 7.99977 23.9997 
3261 1 17.5046 8.86887 23.9999 
3263 2 15.9999 8.00005 23.9994 
3267 2 20.0001 7.99973 23.9992 
3304 2 15.0093 11.9999 23.9987 
3307 2 15.9999 11.9996 23.9987 
1596 2 23.0095 0.00031696 12.0001 
1598 2 25.5045 2.60603 12.0006 
1601 1 29.5048 0.868625 12 
1605 1 33.5047 0.868789 12.0002 
1606 2 33.5053 2.60629 12.0001 
1640 2 23.0088 3.99952 12.0006 
1641 1 25.5046 4.86862 12 
1643 2 24.0002 3.99946 12.0006 
1644 2 27.0096 4.00027 12 
1646 2 29.5048 6.60632 12 
1651 2 31.9998 4.00081 12.0003 
1684 2 23.0096 8.00029 12.0005 
1688 2 27.0096 7.99982 12.0007 
1690 2 29.5045 10.6065 12.0002 
1691 2 28.0002 8.00005 12 
1695 2 32.0001 8.00005 12.0005 
2124 2 23.0095 0.00035158 15.9992 
2125 1 25.5047 0.868612 15.9999 
2126 2 25.5049 2.60611 16 
2127 2 23.9999 3.565e-05 15.9999 
2129 1 29.5048 0.868861 16 
2130 2 29.5049 2.60636 16.0001 
2131 2 28 0.00022683 16.0001 
2133 1 33.5047 0.86881 16 
2134 2 33.5048 2.60631 16.0001 
2135 2 31.9999 0.00015961 15.9991 
2168 2 23.0091 3.99937 16.0004 
2169 1 25.5044 4.86898 15.9999 
2170 2 25.5038 6.60648 16.0003 
2171 2 24 3.99972 16 
2172 2 27.0094 4.00073 15.9994 
2173 1 29.5048 4.86868 16.0002 
2174 2 29.5047 6.60618 15.9999 
2175 2 28.0001 3.99985 16.0001 
2176 2 31.0095 4.00001 16.0006 
2177 1 33.5047 4.86868 15.9999 
2178 2 33.5047 6.60618 16 
2179 2 32.0001 3.99991 16.0004 
2212 2 23.0093 8.00025 16.0006 
2213 1 25.5046 8.86865 16 
2214 2 25.5042 10.6061 15.9999 
2215 2 24 7.9996 16.0002 
2216 2 27.0094 8.00019 16.0001 
2217 1 29.5047 8.86871 15.9999 
2218 2 29.5051 10.6062 16.0001 
2219 2 27.9997 8.00035 15.9995 
2220 2 31.0091 7.99956 16.0002 
2221 1 33.5047 8.86879 16.0001 
2222 2 33.5045 10.6063 16.001 
2223 2 32.0001 7.99987 15.9998 
2256 2 23.0092 11.9998 15.9997 
2259 2 23.9999 11.9998 16.0001 
2264 2 31.0093 11.9996 15.9999 
2267 2 32.0003 11.9998 15.9997 
2653 1 25.5046 0.868799 20 
2654 2 25.505 2.6063 19.9999 
2655 2 23.9998 0.00032187 20.0009 
2657 1 29.5048 0.868534 19.9998 
2658 2 29.5046 2.60603 19.9993 
2661 1 33.5047 0.868797 20 
2662 2 33.5045 2.6063 19.9996 
2696 2 23.0094 4.00037 20.0002 
2697 1 25.5046 4.86893 19.9999 
2698 2 25.5043 6.60643 20.0001 
2699 2 24.0001 3.99987 19.9989 
2700 2 27.0095 4.00049 20.0006 
2701 1 29.5046 4.86852 20.0001 
2702 2 29.5047 6.60602 20 
2703 2 27.9999 3.99986 20.0002 
2704 2 31.0093 3.99969 20 
2705 1 33.5046 4.86883 19.9998 
2706 2 33.5047 6.60633 20.0002 
2707 2 31.9999 4.00017 19.9993 
2740 2 23.0093 7.99963 20.0003 
2741 1 25.5049 8.86887 20 
2742 2 25.5046 10.6064 20.0002 
2743 2 24.0003 7.99988 19.9999 
2744 2 27.0097 8.00037 19.9999 
2745 1 29.5046 8.8687 20 
2746 2 29.5044 10.6062 19.9998 
2747 2 28 7.99974 20.0001 
2748 2 31.0094 8.00017 20 
2749 1 33.5047 8.86873 20.0001 
2750 2 33.5046 10.6062 20.0006 
2751 2 32 7.99989 19.9989 
2784 2 23.0094 11.9998 20 
2787 2 23.9998 11.9998 19.9992 
2791 2 27.9998 11.9999 20.0008 
2792 2 31.0092 11.9997 19.9999 
2795 2 32.0001 11.9995 19.9997 
3182 2 25.5046 2.60615 23.9998 
3184 2 27.0095 4.807e-05 23.9994 
3185 1 29.5048 0.868721 23.9998 
3188 2 31.0095 2.857e-05 23.9997 
3226 2 25.5044 6.60641 23.9997 
3228 2 27.0094 4.00034 23.9994 
3229 1 29.5046 4.86866 23.9999 
3230 2 29.5052 6.60616 23.9996 
3231 2 27.9997 4.00036 23.9996 
3235 2 32.0001 3.99991 23.9994 
3270 2 25.5045 10.6063 23.9998 
3271 2 24 7.99993 23.9999 
3273 1 29.5047 8.86876 23.9999 
3274 2 29.5046 10.6063 23.9997 
3276 2 31.0095 8.00012 23.9999 
3278 2 33.5046 10.6063 23.9991 
3323 2 32.0001 11.9992 23.999 
1717 1 13.5048 12.8687 12.0001 
1719 2 12 12.0001 12.0012 
1725 1 21.5047 12.8688 12.0001 
1761 1 13.5045 16.8688 12 
1763 2 11.9999 15.9998 12.0007 
1764 2 15.0093 16.0002 12.0003 
1766 2 17.5054 18.6062 12.0007 
1769 1 21.5047 16.8691 12 
1770 2 21.5042 18.6066 12.0005 
1805 1 13.5046 20.8689 12.0001 
1806 2 13.5051 22.6064 12 
1808 2 15.009 19.9997 12.0014 
1812 2 19.0093 19.9997 12.0002 
1815 2 19.9996 20.0004 12.0007 
1852 2 15.0092 23.9994 12.0002 
1855 2 16.0004 23.9996 12.0009 
2245 1 13.5046 12.8689 15.9999 
2246 2 13.5043 14.6064 15.9993 
2248 2 15.0095 12.0005 15.9994 
2249 1 17.5046 12.8688 15.9997 
2250 2 17.5047 14.6063 15.9995 
2251 2 15.9999 12.0001 16 
2252 2 19.0093 12 15.9995 
2253 1 21.5047 12.8688 16 
2254 2 21.5051 14.6063 16 
2255 2 19.9998 12.0004 16.0002 
2289 1 13.5047 16.8686 16 
2290 2 13.5047 18.6061 16.0005 
2291 2 12.0001 15.9999 15.9995 
2292 2 15.0095 15.9999 16 
2293 1 17.5047 16.8687 16 
2294 2 17.5043 18.6062 16 
2295 2 16.0002 15.9996 15.9997 
2296 2 19.0096 16.0003 16.0002 
2297 1 21.5048 16.8686 16 
2298 2 21.5045 18.6061 16.0011 
2299 2 20.0002 15.9997 15.9992 
2333 1 13.5046 20.8686 16.0002 
2334 2 13.5048 22.6061 16.001 
2335 2 11.9998 20.0001 15.9998 
2336 2 15.0092 19.9997 15.9998 
2337 1 17.5047 20.8687 16.0001 
2338 2 17.5053 22.6062 15.9999 
2339 2 15.9997 20.0005 15.9999 
2340 2 19.0091 19.9994 16.0004 
2341 1 21.5047 20.8689 16 
2342 2 21.5048 22.6064 15.9999 
2343 2 20 20.0002 15.9997 
2380 2 15.0092 23.9998 15.9998 
2383 2 16 23.9999 16.0001 
2773 1 13.5048 12.8688 20 
2774 2 13.5046 14.6063 20.0002 
2776 2 15.0095 12.0002 20.0008 
2777 1 17.5046 12.8688 19.9999 
2778 2 17.5046 14.6063 19.9999 
2779 2 15.9998 12.0001 20.001 
2780 2 19.0092 12 19.999 
2781 1 21.5048 12.8686 20 
2782 2 21.5048 14.6061 20.0008 
2817 1 13.5047 16.8688 20 
2818 2 13.5042 18.6063 20.0001 
2819 2 12.0002 15.9996 20 
2820 2 15.0096 16.0005 19.9998 
2821 1 17.5046 16.8689 20 
2822 2 17.5047 18.6064 19.9997 
2823 2 15.9999 16.0002 20.0002 
2824 2 19.0093 16.0001 20 
2825 1 21.5047 16.8688 20 
2826 2 21.5044 18.6063 19.9998 
2827 2 20.0002 15.9997 20.0008 
2861 1 13.5045 20.8688 19.9999 
2862 2 13.505 22.6063 19.9998 
2863 2 11.9996 20.0005 19.9993 
2864 2 15.009 19.9996 20.0006 
2865 1 17.5046 20.8688 20.0003 
2866 2 17.5051 22.6063 19.9999 
2867 2 15.9997 20.0005 20.0007 
2868 2 19.0091 19.9997 20.0001 
2869 1 21.5047 20.8688 20 
2870 2 21.5047 22.6063 19.9999 
2871 2 19.9999 20.0001 19.9998 
2908 2 15.0095 23.9999 19.9998 
2912 2 19.0093 23.9997 19.9995 
3310 2 21.5043 14.6062 23.9997 
3348 2 15.0098 16.0003 23.9997 
3349 1 17.5046 16.8686 23.9999 
3352 2 19.0093 15.9998 23.9985 
3353 1 21.5046 16.8687 23.9998 
3355 2 19.9999 16.0001 23.9998 
3390 2 13.505 22.6063 23.9997 
3391 2 11.9999 20.0003 23.9999 
3393 1 17.5049 20.869 23.9999 
3395 2 16.0004 19.9998 23.9998 
3396 2 19.0098 20.0007 23.9994 
3398 2 21.5045 22.6065 23.9998 
3399 2 19.9999 20.0002 23.9998 
1728 2 23.0095 12.0003 12 
1729 1 25.5045 12.8687 12 
1730 2 25.5048 14.6062 12.0004 
1733 1 29.5049 12.8688 12.0001 
1734 2 29.5046 14.6063 12.0001 
1736 2 31.0097 12.0003 12.0006 
1737 1 33.5047 12.8688 12 
1738 2 33.5048 14.6063 12.0004 
1772 2 23.0097 16.0008 12.0003 
1774 2 25.5046 18.6065 12.0007 
1775 2 24 16.0002 12.0003 
1777 1 29.5048 16.8691 12 
1778 2 29.5049 18.6066 12.0002 
1779 2 28 16.0004 12 
1781 1 33.5046 16.8686 12.0001 
1782 2 33.5042 18.6061 12 
1783 2 32.0001 15.9995 12.0005 
1817 1 25.5046 20.8685 12 
1818 2 25.5042 22.606 12.0008 
1822 2 29.5041 22.6061 12.0006 
1825 1 33.5048 20.8687 12 
1827 2 31.9998 20.0003 12.0012 
1871 2 32.0002 23.9999 12.0003 
2257 1 25.5045 12.8688 16.0001 
2258 2 25.5043 14.6063 16.0009 
2260 2 27.0093 12.0002 15.9992 
2261 1 29.5048 12.8687 15.9999 
2262 2 29.5053 14.6062 15.9992 
2263 2 27.9999 12.0004 16.0006 
2265 1 33.5048 12.8689 16 
2266 2 33.5043 14.6064 16.0002 
2300 2 23.0096 16.0001 15.9999 
2301 1 25.5047 16.8689 15.9998 
2302 2 25.505 18.6064 16.0011 
2303 2 23.9998 16.0005 15.9997 
2304 2 27.0092 15.9998 15.9986 
2305 1 29.5049 16.8686 15.9999 
2306 2 29.5046 18.6061 15.9997 
2307 2 28.0003 15.9996 15.9999 
2308 2 31.0097 16.0001 16.0002 
2309 1 33.5046 16.8687 15.9999 
2310 2 33.5045 18.6062 16.001 
2311 2 32 15.9998 15.9995 
2344 2 23.0094 20.0001 16.0005 
2345 1 25.5045 20.8689 15.9999 
2346 2 25.505 22.6064 16 
2347 2 23.9996 20.0006 16.0001 
2348 2 27.009 19.9997 15.9995 
2349 1 29.5047 20.8686 16.0001 
2350 2 29.5048 22.6061 15.9998 
2351 2 27.9999 20 16.0003 
2352 2 31.0093 19.9997 16.0002 
2353 1 33.5049 20.8687 16 
2354 2 33.5049 22.6062 15.9997 
2355 2 32.0002 19.9999 16.0006 
2388 2 23.0091 23.9995 16 
2392 2 27.0093 23.9995 16.0001 
2396 2 31.0094 23.9998 16.0003 
2399 2 32 23.9999 15.9995 
2785 1 25.5044 12.8687 20.0001 
2786 2 25.5043 14.6062 20.0014 
2788 2 27.0092 12 19.9998 
2789 1 29.5046 12.8686 20.0001 
2790 2 29.5048 14.6061 19.9997 
2793 1 33.5047 12.8685 20 
2794 2 33.5044 14.606 19.9998 
2828 2 23.0096 16.0003 19.9995 
2829 1 25.5047 16.8685 19.9999 
2830 2 25.5054 18.606 20.0004 
2831 2 23.9997 16.0003 19.9995 
2832 2 27.0091 15.9991 19.9999 
2833 1 29.5049 16.8687 20 
2834 2 29.5052 18.6062 19.9997 
2835 2 28 16.0002 20.0003 
2836 2 31.0094 15.9996 20 
2837 1 33.5045 16.869 19.9998 
2838 2 33.505 18.6065 20.0009 
2839 2 31.9995 16.0007 19.9994 
2872 2 23.0093 20 20.0003 
2873 1 25.5049 20.8688 19.9999 
2874 2 25.5049 22.6063 19.9996 
2875 2 24.0001 20.0001 20 
2876 2 27.0095 20 20.0003 
2877 1 29.5046 20.8687 19.9999 
2878 2 29.5045 22.6062 20 
2879 2 28 19.9999 19.9994 
2880 2 31.0094 20.0001 20.0004 
2881 1 33.5049 20.8686 20 
2882 2 33.5051 22.6061 20.0009 
2883 2 32.0002 20 19.9993 
2916 2 23.0092 23.9998 19.9991 
2919 2 24.0006 23.9992 20 
2923 2 28.0004 23.9994 20.0003 
3312 2 23.0097 12.0004 23.9998 
3318 2 29.5046 14.6062 23.9987 
3321 1 33.5045 12.8685 23.9998 
3356 2 23.0093 15.9999 23.9991 
3360 2 27.0099 16.0009 23.9994 
3363 2 27.9998 16.0005 23.9997 
3402 2 25.5042 22.6063 23.9998 
3451 2 27.9999 23.9999 23.9998 
3173 1 17.5048 0.869081 24 
3174 2 17.505 2.60658 24.0002 
3177 1 21.5047 0.868756 24 
3178 2 21.5049 2.60626 24.0003 
3179 2 20 0.00012116 24.0008 
3214 2 13.5046 6.60598 24.0008 
3217 1 17.5048 4.86887 24.0001 
3218 2 17.5046 6.60637 24.0007 
3220 2 19.0096 4.0003 24.0004 
3221 1 21.5044 4.86868 24 
3223 2 19.9997 3.99999 24.0001 
3260 2 15.0094 8.00012 24.0007 
3262 2 17.5045 10.6064 24.0004 
3264 2 19.0093 8.00019 24 
3265 1 21.5047 8.86869 24.0001 
3266 2 21.5045 10.6062 24.0005 
3311 2 20.0003 11.9996 24.0006 
3697 1 13.5047 0.868528 28 
3698 2 13.5044 2.60603 27.9995 
3701 1 17.5049 0.868604 28.0002 
3702 2 17.5048 2.6061 28.0004 
3705 1 21.5046 0.868761 28 
3706 2 21.505 2.60626 28.0002 
3707 2 19.9997 0.00036482 28.0002 
3741 1 13.5049 4.86853 27.9997 
3742 2 13.5053 6.60603 28.0004 
3743 2 12 4.00011 27.9998 
3744 2 15.0094 3.99946 27.9989 
3745 1 17.5044 4.86891 28 
3746 2 17.5043 6.60641 28.0004 
3747 2 15.9998 4.00001 27.9997 
3748 2 19.0092 4.00032 27.9999 
3749 1 21.5045 4.86895 27.9999 
3750 2 21.5044 6.60645 27.9992 
3751 2 19.9998 4.00014 27.9998 
3785 1 13.5046 8.86873 27.9999 
3786 2 13.5045 10.6062 27.9994 
3787 2 11.9999 7.99993 27.9996 
3788 2 15.0093 8.00004 28.0006 
3789 1 17.5046 8.86884 27.9998 
3790 2 17.5042 10.6063 27.9992 
3791 2 16 7.99981 27.9994 
3792 2 19.0094 8.00038 28.0008 
3793 1 21.5047 8.86857 27.9996 
3794 2 21.5047 10.6061 28 
3795 2 19.9999 7.99987 27.9991 
3831 2 12 11.9998 28.001 
3832 2 15.0094 11.9999 27.9987 
3835 2 16.0001 11.9999 28 
3839 2 20.0005 11.9992 27.9997 
4225 1 13.5047 0.868719 32.0002 
4226 2 13.5046 2.60622 32.0002 
4228 2 15.0094 2.177e-05 31.9998 
4229 1 17.5046 0.868557 32.0001 
4230 2 17.5044 2.60606 31.9999 
4232 2 19.0094 1.111e-05 32.0007 
4233 1 21.5046 0.868607 31.9999 
4234 2 21.5042 2.60611 31.9997 
4269 1 13.5048 4.86902 31.9999 
4270 2 13.5043 6.60652 31.9995 
4271 2 12.0003 3.99982 31.9995 
4272 2 15.0097 4.00072 32.0008 
4273 1 17.5048 4.86878 32 
4274 2 17.5048 6.60628 32.0006 
4275 2 16.0001 4.00005 32.0002 
4276 2 19.0095 4.00001 31.9991 
4277 1 21.5046 4.8688 32.0001 
4278 2 21.5037 6.6063 32.0001 
4279 2 20.0004 3.99926 32 
4313 1 13.5048 8.86861 32 
4314 2 13.5045 10.6061 32.0004 
4315 2 12.0003 7.99959 31.999 
4316 2 15.0097 8.00014 32.0005 
4317 1 17.5048 8.86879 32 
4318 2 17.5052 10.6063 32.0006 
4319 2 15.9998 8.00045 31.9998 
4320 2 19.0092 7.99964 31.9997 
4321 1 21.5046 8.86889 31.9999 
4322 2 21.5043 10.6064 32.0004 
4323 2 20.0001 7.99988 32.0004 
4360 2 15.0095 11.9999 31.9997 
4364 2 19.0093 11.9998 32.0001 
4754 2 13.5048 2.60647 35.9997 
4756 2 15.0094 0.00012077 35.9997 
4758 2 17.5043 2.60608 35.9995 
4761 1 21.5045 0.868801 35.9998 
4763 2 19.9997 0.00029032 35.9993 
4799 2 12 3.99969 35.9998 
4800 2 15.0094 4.00024 35.9997 
4803 2 16.0003 3.99961 35.9996 
4805 1 21.5047 4.86893 35.9999 
4807 2 20 4.0002 35.9998 
4841 1 13.5048 8.86852 35.9999 
4842 2 13.5057 10.606 35.9999 
4844 2 15.009 7.99894 35.9994 
4846 2 17.5045 10.6062 35.9996 
4850 2 21.505 10.6062 35.9996 
4851 2 19.9997 8.00031 35.9998 
3181 1 25.5047 0.868654 24.0001 
3186 2 29.5047 2.60622 24.0002 
3189 1 33.5048 0.868806 24 
3190 2 33.5049 2.60631 24 
3191 2 32 0.00014144 24.0002 
3224 2 23.0091 3.99988 24.0003 
3225 1 25.5046 4.86891 24.0002 
3227 2 24 3.99998 24.0014 
3232 2 31.0091 3.99945 24.0004 
3233 1 33.5047 4.86879 24.0002 
3234 2 33.5046 6.60629 24.0002 
3268 2 23.0095 8.00015 24.0005 
3269 1 25.5046 8.86876 24 
3272 2 27.0094 8.0001 24.0004 
3275 2 28.0001 7.99989 24 
3277 1 33.5048 8.86879 24 
3279 2 32.0002 7.99989 24.0004 
3315 2 24 11.9999 24.0003 
3319 2 28 11.9999 24.0001 
3709 1 25.5048 0.8685 28.0003 
3710 2 25.5046 2.606 28.0012 
3713 1 29.5046 0.868873 28 
3714 2 29.5046 2.60637 28.001 
3715 2 27.9998 0.00018918 27.9993 
3716 2 31.0092 5.767e-05 27.9996 
3717 1 33.5046 0.868847 27.9999 
3718 2 33.5041 2.60635 28.0007 
3752 2 23.0092 4.00025 28.0007 
3753 1 25.5049 4.86888 27.9998 
3754 2 25.5047 6.60638 28.0002 
3755 2 24.0003 3.99999 27.9994 
3756 2 27.0097 4.00028 27.9996 
3757 1 29.5048 4.86871 28 
3758 2 29.505 6.60621 28.0006 
3759 2 28 4.00016 27.9993 
3760 2 31.0094 3.99977 28 
3761 1 33.5048 4.86876 28 
3762 2 33.5052 6.60626 28.0007 
3763 2 31.9999 4.0003 27.999 
3796 2 23.0093 7.99977 27.9999 
3797 1 25.5046 8.86881 28 
3798 2 25.5045 10.6063 28.0005 
3799 2 24 7.99995 27.9999 
3800 2 27.0094 8.00016 27.9995 
3801 1 29.5047 8.86876 28 
3802 2 29.505 10.6063 28 
3803 2 27.9999 8.00024 27.9998 
3804 2 31.0093 7.99977 28.0002 
3805 1 33.5047 8.86891 28.0002 
3806 2 33.5049 10.6064 27.9993 
3807 2 32 8.0003 28.0001 
3844 2 27.0092 11.9998 28.0006 
3848 2 31.0089 11.9998 28.0005 
3851 2 32.0001 11.9997 27.9997 
4236 2 23.0095 0.00020709 31.9994 